/*--------------------------------*- C++ -*----------------------------------*\
| =========                 |                                                 |
| \\      /  F ield         | OpenFOAM: The Open Source CFD Toolbox           |
|  \\    /   O peration     | Version:  2.4.0                                 |
|   \\  /    A nd           | Web:      www.OpenFOAM.org                      |
|    \\/     M anipulation  |                                                 |
\*---------------------------------------------------------------------------*/
FoamFile
{
    version     2.0;
    format      ascii;
    class       volScalarField;
    location    "3000";
    object      alphat;
}
// * * * * * * * * * * * * * * * * * * * * * * * * * * * * * * * * * * * * * //

dimensions      [1 -1 -1 0 0 0 0];

internalField   nonuniform List<scalar> 
38400
(
2.15273e-09
2.96259e-09
3.26856e-09
3.4744e-09
3.72319e-09
3.94182e-09
4.13932e-09
4.42321e-09
4.88408e-09
5.56652e-09
6.51467e-09
7.72837e-09
9.20937e-09
1.09688e-08
1.30473e-08
1.54498e-08
1.82107e-08
2.16285e-08
2.55029e-08
3.00452e-08
3.53356e-08
4.14857e-08
4.87485e-08
5.78115e-08
6.84966e-08
8.02374e-08
9.21014e-08
1.06278e-07
1.19001e-07
1.37681e-07
1.4748e-07
1.859e-07
2.14828e-09
2.95153e-09
3.21755e-09
3.36232e-09
3.57036e-09
3.76803e-09
3.98714e-09
4.32219e-09
4.82259e-09
5.52688e-09
6.46049e-09
7.62587e-09
9.04148e-09
1.0738e-08
1.27503e-08
1.5062e-08
1.77189e-08
2.09606e-08
2.47955e-08
2.91693e-08
3.42367e-08
4.01397e-08
4.70371e-08
5.5509e-08
6.56122e-08
7.68747e-08
8.81007e-08
1.0151e-07
1.13435e-07
1.31003e-07
1.40075e-07
1.76146e-07
2.1407e-09
2.92436e-09
3.10064e-09
3.16228e-09
3.33086e-09
3.51995e-09
3.76255e-09
4.13647e-09
4.65686e-09
5.35401e-09
6.24925e-09
7.35464e-09
8.695e-09
1.03013e-08
1.21925e-08
1.43688e-08
1.68698e-08
1.98156e-08
2.35231e-08
2.76141e-08
3.23167e-08
3.7785e-08
4.4103e-08
5.17009e-08
6.07604e-08
7.13031e-08
8.16762e-08
9.39885e-08
1.04798e-07
1.20752e-07
1.28764e-07
1.61308e-07
2.13305e-09
2.86014e-09
2.9167e-09
2.90745e-09
3.05444e-09
3.24768e-09
3.5033e-09
3.888e-09
4.3994e-09
5.06538e-09
5.90739e-09
6.94337e-09
8.19316e-09
9.67895e-09
1.14168e-08
1.34206e-08
1.57251e-08
1.84255e-08
2.11931e-08
2.55145e-08
2.97674e-08
3.46964e-08
4.03318e-08
4.69722e-08
5.47379e-08
6.42868e-08
7.37757e-08
8.48851e-08
9.44985e-08
1.08768e-07
1.15667e-07
1.44244e-07
2.12707e-09
2.73497e-09
2.68451e-09
2.62982e-09
2.76541e-09
2.96355e-09
3.219e-09
3.59156e-09
4.07429e-09
4.69178e-09
5.46638e-09
6.41379e-09
7.55041e-09
8.89394e-09
1.04589e-08
1.22645e-08
1.43431e-08
1.67674e-08
1.95229e-08
2.30402e-08
2.68227e-08
3.11672e-08
3.60948e-08
4.18128e-08
4.82919e-08
5.63909e-08
6.49703e-08
7.50047e-08
8.34476e-08
9.607e-08
1.0195e-07
1.26789e-07
2.11949e-09
2.54436e-09
2.42847e-09
2.34371e-09
2.46985e-09
2.66644e-09
2.9096e-09
3.25406e-09
3.69305e-09
4.24986e-09
4.94588e-09
5.79249e-09
6.80457e-09
7.99564e-09
9.37875e-09
1.09752e-08
1.28122e-08
1.495e-08
1.74024e-08
2.02454e-08
2.36781e-08
2.7455e-08
3.16937e-08
3.65659e-08
4.19477e-08
4.85005e-08
5.56884e-08
6.47394e-08
7.22166e-08
8.33062e-08
8.82572e-08
1.09801e-07
2.09869e-09
2.31057e-09
2.15978e-09
2.05267e-09
2.16959e-09
2.35711e-09
2.57788e-09
2.88449e-09
3.27135e-09
3.7609e-09
4.37228e-09
5.11392e-09
5.99808e-09
7.03519e-09
8.238e-09
9.62465e-09
1.12198e-08
1.30722e-08
1.51978e-08
1.76161e-08
2.03871e-08
2.37242e-08
2.73496e-08
3.14578e-08
3.59243e-08
4.12292e-08
4.68599e-08
5.43363e-08
6.09388e-08
7.08234e-08
7.50068e-08
9.35446e-08
2.04689e-09
2.06107e-09
1.88143e-09
1.76079e-09
1.86817e-09
2.03864e-09
2.23034e-09
2.49396e-09
2.8255e-09
3.24534e-09
3.77103e-09
4.40772e-09
5.16564e-09
6.05391e-09
7.0824e-09
8.26713e-09
9.62955e-09
1.12085e-08
1.30203e-08
1.50795e-08
1.73977e-08
2.0057e-08
2.31199e-08
2.66191e-08
3.03148e-08
3.46396e-08
3.90803e-08
4.48486e-08
4.99951e-08
5.85157e-08
6.21467e-08
7.82377e-08
1.9469e-09
1.80314e-09
1.59724e-09
1.47092e-09
1.56746e-09
1.7148e-09
1.87376e-09
2.09324e-09
2.36894e-09
2.72003e-09
3.1613e-09
3.69568e-09
4.3324e-09
5.07827e-09
5.94149e-09
6.93626e-09
8.07921e-09
9.40313e-09
1.09209e-08
1.26478e-08
1.45881e-08
1.67881e-08
1.92308e-08
2.20315e-08
2.51058e-08
2.86691e-08
3.22201e-08
3.67429e-08
4.05886e-08
4.70381e-08
4.97965e-08
6.36612e-08
1.78799e-09
1.53232e-09
1.31054e-09
1.18576e-09
1.26966e-09
1.3903e-09
1.51636e-09
1.69248e-09
1.91454e-09
2.19931e-09
2.55902e-09
2.99555e-09
3.51648e-09
4.12721e-09
4.83521e-09
5.65159e-09
6.59025e-09
7.67773e-09
8.92438e-09
1.03441e-08
1.19402e-08
1.37484e-08
1.5745e-08
1.79995e-08
2.04016e-08
2.32152e-08
2.60579e-08
2.96804e-08
3.26489e-08
3.75371e-08
3.9442e-08
4.97946e-08
1.57475e-09
1.24697e-09
1.0258e-09
9.11223e-10
9.80973e-10
1.0749e-09
1.17031e-09
1.30612e-09
1.47812e-09
1.70037e-09
1.98297e-09
2.32677e-09
2.73811e-09
3.22171e-09
3.78367e-09
4.43291e-09
5.18134e-09
6.04929e-09
7.04649e-09
8.18287e-09
9.4633e-09
1.09157e-08
1.25194e-08
1.43313e-08
1.62454e-08
1.84687e-08
2.06608e-08
2.34644e-08
2.57285e-08
2.95135e-08
3.09007e-08
3.84958e-08
1.32731e-09
9.52094e-10
7.53861e-10
6.58454e-10
7.1358e-10
7.83058e-10
8.52059e-10
9.52138e-10
1.07917e-09
1.24469e-09
1.45642e-09
1.71467e-09
2.02482e-09
2.39068e-09
2.81711e-09
3.31164e-09
3.88352e-09
4.54884e-09
5.31549e-09
6.19217e-09
7.18168e-09
8.30832e-09
9.55393e-09
1.09659e-08
1.24581e-08
1.41957e-08
1.58953e-08
1.80715e-08
1.97868e-08
2.26978e-08
2.36565e-08
2.9374e-08
1.05175e-09
6.65298e-10
5.10476e-10
4.39663e-10
4.80257e-10
5.28833e-10
5.76319e-10
6.46061e-10
7.34768e-10
8.51178e-10
1.00081e-09
1.18388e-09
1.40464e-09
1.66588e-09
1.9715e-09
2.32754e-09
2.74057e-09
3.22339e-09
3.78145e-09
4.42264e-09
5.14863e-09
5.97885e-09
6.89984e-09
7.94814e-09
9.05797e-09
1.03584e-08
1.1628e-08
1.32679e-08
1.45444e-08
1.67503e-08
1.74201e-08
2.17414e-08
7.43546e-10
4.12898e-10
3.09406e-10
2.63377e-10
2.90321e-10
3.21647e-10
3.52022e-10
3.96989e-10
4.54375e-10
5.30112e-10
6.28035e-10
7.48451e-10
8.94341e-10
1.06773e-09
1.27166e-09
1.51015e-09
1.78819e-09
2.11451e-09
2.49332e-09
2.93046e-09
3.42762e-09
3.99834e-09
4.63422e-09
5.36173e-09
6.13358e-09
7.04446e-09
7.9335e-09
9.09447e-09
9.98983e-09
1.157e-08
1.20184e-08
1.51422e-08
4.37052e-10
2.18218e-10
1.60361e-10
1.34976e-10
1.50318e-10
1.67956e-10
1.85072e-10
2.10577e-10
2.43316e-10
2.86884e-10
3.43746e-10
4.14275e-10
5.00458e-10
6.03751e-10
7.262e-10
8.70431e-10
1.03983e-09
1.23982e-09
1.47354e-09
1.74462e-09
2.05477e-09
2.41266e-09
2.8131e-09
3.27409e-09
3.76477e-09
4.34759e-09
4.91679e-09
5.66862e-09
6.24363e-09
7.28057e-09
7.55551e-09
9.63036e-09
1.98773e-10
9.25635e-11
6.67865e-11
5.55798e-11
6.25525e-11
7.05687e-11
7.8396e-11
9.01462e-11
1.05362e-10
1.2585e-10
1.52957e-10
1.87034e-10
2.29245e-10
2.8055e-10
3.42147e-10
4.15635e-10
5.02991e-10
6.07289e-10
7.30486e-10
8.74815e-10
1.04151e-09
1.23562e-09
1.45441e-09
1.70844e-09
1.9805e-09
2.30644e-09
2.62543e-09
3.05181e-09
3.37622e-09
3.97312e-09
4.12204e-09
5.33259e-09
6.48085e-11
2.9082e-11
2.06326e-11
1.6993e-11
1.93053e-11
2.19734e-11
2.45973e-11
2.85685e-11
3.37631e-11
4.08499e-11
5.0368e-11
6.25234e-11
7.78323e-11
9.67581e-11
1.1986e-10
1.4789e-10
1.81761e-10
2.22858e-10
2.72169e-10
3.30848e-10
3.99582e-10
4.80809e-10
5.7354e-10
6.82654e-10
8.00863e-10
9.4429e-10
1.08582e-09
1.27753e-09
1.42373e-09
1.69797e-09
1.7636e-09
2.33046e-09
1.34402e-11
5.91868e-12
4.14242e-12
3.38325e-12
3.87137e-12
4.43512e-12
4.99193e-12
5.84054e-12
6.95987e-12
8.50377e-12
1.06026e-11
1.33186e-11
1.67888e-11
2.11418e-11
2.65361e-11
3.31842e-11
4.13412e-11
5.1398e-11
6.36546e-11
7.8478e-11
9.61096e-11
1.17284e-10
1.41828e-10
1.71143e-10
2.03363e-10
2.43068e-10
2.82703e-10
3.37305e-10
3.79184e-10
4.59471e-10
4.78065e-10
6.48456e-10
1.31404e-12
5.75706e-13
3.99043e-13
3.23946e-13
3.72662e-13
4.28931e-13
4.84654e-13
5.70023e-13
6.8332e-13
8.40883e-13
1.05705e-12
1.33961e-12
1.70471e-12
2.16798e-12
2.74905e-12
3.47441e-12
4.3758e-12
5.50239e-12
6.894e-12
8.60132e-12
1.06605e-11
1.31705e-11
1.61219e-11
1.96999e-11
2.36865e-11
2.86778e-11
3.37216e-11
4.07916e-11
4.62546e-11
5.69627e-11
5.93761e-11
8.27858e-11
1.35503e-14
5.9515e-15
4.08948e-15
3.30236e-15
3.81763e-15
4.41427e-15
5.00732e-15
5.92009e-15
7.1391e-15
8.84818e-15
1.12148e-14
1.43408e-14
1.84272e-14
2.3676e-14
3.03456e-14
3.87874e-14
4.94269e-14
6.29288e-14
7.98665e-14
1.00993e-13
1.26907e-13
1.5904e-13
1.97508e-13
2.45002e-13
2.98879e-13
3.67653e-13
4.38386e-13
5.39604e-13
6.19022e-13
7.78412e-13
8.14243e-13
1.17716e-12
5.28426e-07
5.92672e-07
6.2218e-07
6.42878e-07
6.43023e-07
6.35029e-07
6.25965e-07
6.32506e-07
6.7094e-07
7.43917e-07
8.55888e-07
1.00473e-06
1.18766e-06
1.40323e-06
1.6538e-06
1.93543e-06
2.24859e-06
2.70237e-06
3.17822e-06
3.69658e-06
4.2762e-06
4.91704e-06
5.62469e-06
6.40956e-06
7.2512e-06
8.1656e-06
9.04862e-06
1.00359e-05
1.09018e-05
1.21877e-05
1.28477e-05
1.55842e-05
5.25741e-07
5.88001e-07
6.01686e-07
6.01886e-07
5.91854e-07
5.81754e-07
5.81109e-07
6.00748e-07
6.4783e-07
7.24813e-07
8.33522e-07
9.72934e-07
1.14368e-06
1.3477e-06
1.58666e-06
1.85359e-06
2.15116e-06
2.55247e-06
3.0409e-06
3.53623e-06
4.08724e-06
4.70015e-06
5.37266e-06
6.11439e-06
6.91086e-06
7.78716e-06
8.63221e-06
9.5675e-06
1.03669e-05
1.15444e-05
1.21437e-05
1.46622e-05
5.21522e-07
5.75951e-07
5.57376e-07
5.3454e-07
5.18966e-07
5.12362e-07
5.21214e-07
5.51504e-07
6.03861e-07
6.80348e-07
7.82468e-07
9.11472e-07
1.06922e-06
1.25807e-06
1.4778e-06
1.72424e-06
1.99999e-06
2.32244e-06
2.81356e-06
3.27584e-06
3.7815e-06
4.34556e-06
4.96256e-06
5.64054e-06
6.36537e-06
7.17832e-06
7.96983e-06
8.84924e-06
9.57567e-06
1.06075e-05
1.11205e-05
1.33061e-05
5.18267e-07
5.47668e-07
4.93817e-07
4.58382e-07
4.44931e-07
4.45262e-07
4.60846e-07
4.95925e-07
5.48717e-07
6.21279e-07
7.15565e-07
8.33836e-07
9.77518e-07
1.14811e-06
1.34521e-06
1.56774e-06
1.81742e-06
2.10569e-06
2.31116e-06
2.95224e-06
3.40523e-06
3.91045e-06
4.46251e-06
5.06829e-06
5.71033e-06
6.44047e-06
7.1639e-06
7.98215e-06
8.65338e-06
9.58097e-06
1.0017e-05
1.18353e-05
5.17288e-07
4.9704e-07
4.2251e-07
3.86187e-07
3.77926e-07
3.84581e-07
4.03764e-07
4.39383e-07
4.89529e-07
5.56069e-07
6.41142e-07
7.4687e-07
8.7442e-07
1.02499e-06
1.19855e-06
1.39523e-06
1.61683e-06
1.87087e-06
2.14628e-06
2.5919e-06
2.99833e-06
3.44095e-06
3.9249e-06
4.45731e-06
5.01712e-06
5.65254e-06
6.29537e-06
7.04076e-06
7.65282e-06
8.51218e-06
8.90151e-06
1.04404e-05
5.15777e-07
4.2901e-07
3.54293e-07
3.22118e-07
3.18611e-07
3.29387e-07
3.49604e-07
3.83117e-07
4.28543e-07
4.87675e-07
5.62629e-07
6.54997e-07
7.65917e-07
8.96303e-07
1.04645e-06
1.21723e-06
1.41008e-06
1.63097e-06
1.87931e-06
2.17539e-06
2.57942e-06
2.96966e-06
3.38676e-06
3.84679e-06
4.32992e-06
4.87425e-06
5.42477e-06
6.08559e-06
6.63401e-06
7.41646e-06
7.76368e-06
9.15419e-06
5.04725e-07
3.56621e-07
2.93046e-07
2.65701e-07
2.65692e-07
2.78433e-07
2.97817e-07
3.2776e-07
3.67444e-07
4.18622e-07
4.83193e-07
5.62361e-07
6.57084e-07
7.68173e-07
8.96118e-07
1.04184e-06
1.20696e-06
1.39592e-06
1.60929e-06
1.84784e-06
2.12858e-06
2.50244e-06
2.87066e-06
3.26309e-06
3.67388e-06
4.13689e-06
4.59968e-06
5.16128e-06
5.63812e-06
6.3381e-06
6.64355e-06
7.89771e-06
4.7231e-07
2.90453e-07
2.38656e-07
2.15815e-07
2.18097e-07
2.31047e-07
2.48397e-07
2.74122e-07
3.07741e-07
3.50929e-07
4.0542e-07
4.71998e-07
5.51531e-07
6.44704e-07
7.52004e-07
8.74425e-07
1.01345e-06
1.17266e-06
1.35283e-06
1.55409e-06
1.77738e-06
2.03738e-06
2.35799e-06
2.71536e-06
3.06479e-06
3.45404e-06
3.84024e-06
4.30851e-06
4.70328e-06
5.3039e-06
5.56734e-06
6.67985e-06
4.13015e-07
2.32802e-07
1.90354e-07
1.71415e-07
1.75003e-07
1.86899e-07
2.01569e-07
2.22878e-07
2.50553e-07
2.86111e-07
3.31043e-07
3.85883e-07
4.51403e-07
5.28157e-07
6.16617e-07
7.17743e-07
8.32796e-07
9.64728e-07
1.11437e-06
1.28208e-06
1.46772e-06
1.67536e-06
1.90634e-06
2.17679e-06
2.48672e-06
2.82749e-06
3.15052e-06
3.5385e-06
3.86069e-06
4.35424e-06
4.56688e-06
5.51844e-06
3.32719e-07
1.82022e-07
1.47316e-07
1.31748e-07
1.35847e-07
1.45971e-07
1.57773e-07
1.74811e-07
1.96855e-07
2.25292e-07
2.61336e-07
3.05371e-07
3.58048e-07
4.19851e-07
4.91223e-07
5.73044e-07
6.66355e-07
7.73592e-07
8.95509e-07
1.03264e-06
1.18487e-06
1.35509e-06
1.54074e-06
1.74802e-06
1.97068e-06
2.23269e-06
2.50546e-06
2.8386e-06
3.1071e-06
3.51092e-06
3.67869e-06
4.44742e-06
2.47221e-07
1.36822e-07
1.08992e-07
9.66458e-08
1.00668e-07
1.08761e-07
1.17817e-07
1.30904e-07
1.47807e-07
1.69721e-07
1.97617e-07
2.31775e-07
2.7276e-07
3.20989e-07
3.76892e-07
4.41235e-07
5.14901e-07
5.99862e-07
6.96792e-07
8.06257e-07
9.28262e-07
1.06518e-06
1.21473e-06
1.38111e-06
1.55554e-06
1.75512e-06
1.95405e-06
2.2042e-06
2.41425e-06
2.74387e-06
2.88597e-06
3.50683e-06
1.72325e-07
9.67301e-08
7.57108e-08
6.66035e-08
7.01404e-08
7.62383e-08
8.285e-08
9.24243e-08
1.04774e-07
1.20861e-07
1.41443e-07
1.66724e-07
1.97192e-07
2.33211e-07
2.75184e-07
3.23762e-07
3.79709e-07
4.44576e-07
5.18996e-07
6.03505e-07
6.98216e-07
8.05045e-07
9.22266e-07
1.05331e-06
1.19081e-06
1.34785e-06
1.5018e-06
1.69327e-06
1.84845e-06
2.09734e-06
2.19494e-06
2.67482e-06
1.12391e-07
6.26284e-08
4.83524e-08
4.22744e-08
4.50455e-08
4.93281e-08
5.38659e-08
6.0436e-08
6.89e-08
7.99721e-08
9.42166e-08
1.11781e-07
1.33064e-07
1.5837e-07
1.88052e-07
2.22638e-07
2.62783e-07
3.09657e-07
3.63842e-07
4.25833e-07
4.95865e-07
5.75415e-07
6.63317e-07
7.62344e-07
8.66828e-07
9.86931e-07
1.10488e-06
1.25213e-06
1.3705e-06
1.56158e-06
1.63183e-06
1.9971e-06
6.55847e-08
3.60636e-08
2.75811e-08
2.3983e-08
2.58685e-08
2.85789e-08
3.14119e-08
3.55099e-08
4.07954e-08
4.77407e-08
5.67382e-08
6.79003e-08
8.15081e-08
9.78075e-08
1.17077e-07
1.39707e-07
1.66202e-07
1.97403e-07
2.33789e-07
2.75809e-07
3.23719e-07
3.78638e-07
4.39925e-07
5.0962e-07
5.8378e-07
6.69883e-07
7.55077e-07
8.62541e-07
9.49191e-07
1.09069e-06
1.14187e-06
1.41507e-06
3.24077e-08
1.78193e-08
1.35e-08
1.16584e-08
1.27284e-08
1.41938e-08
1.57132e-08
1.79165e-08
2.07676e-08
2.45462e-08
2.94799e-08
3.56536e-08
4.32528e-08
5.24339e-08
6.33939e-08
7.64013e-08
9.17709e-08
1.10071e-07
1.31607e-07
1.56763e-07
1.85716e-07
2.19299e-07
2.57145e-07
3.00665e-07
3.47473e-07
4.02504e-07
4.57421e-07
5.27613e-07
5.84601e-07
6.79095e-07
7.13138e-07
8.99402e-07
1.29889e-08
7.21719e-09
5.39903e-09
4.61904e-09
5.10186e-09
5.73882e-09
6.39367e-09
7.35082e-09
8.59549e-09
1.02598e-08
1.24571e-08
1.52325e-08
1.86828e-08
2.28988e-08
2.79851e-08
3.40855e-08
4.13803e-08
5.01497e-08
6.05921e-08
7.29102e-08
8.72611e-08
1.04077e-07
1.23226e-07
1.45516e-07
1.69721e-07
1.98523e-07
2.27493e-07
2.65099e-07
2.95721e-07
3.47572e-07
3.65837e-07
4.70369e-07
4.019e-09
2.23932e-09
1.64933e-09
1.39525e-09
1.55798e-09
1.7651e-09
1.97642e-09
2.28806e-09
2.69537e-09
3.24579e-09
3.9792e-09
4.91381e-09
6.088e-09
7.536e-09
9.30007e-09
1.14392e-08
1.402e-08
1.71563e-08
2.09231e-08
2.54151e-08
3.06904e-08
3.69379e-08
4.41133e-08
5.25459e-08
6.17744e-08
7.28901e-08
8.4115e-08
9.89115e-08
1.10906e-07
1.31752e-07
1.38712e-07
1.81553e-07
8.40946e-10
4.54369e-10
3.29132e-10
2.75155e-10
3.10043e-10
3.52835e-10
3.95932e-10
4.60154e-10
5.44426e-10
6.59011e-10
8.12679e-10
1.00957e-09
1.25818e-09
1.56624e-09
1.94388e-09
2.4036e-09
2.9614e-09
3.64171e-09
4.46241e-09
5.44454e-09
6.60277e-09
7.97803e-09
9.56264e-09
1.14334e-08
1.34805e-08
1.59628e-08
1.846e-08
2.17979e-08
2.44531e-08
2.92165e-08
3.0642e-08
4.05216e-08
8.55348e-11
4.38939e-11
3.13439e-11
2.59286e-11
2.94407e-11
3.3596e-11
3.7728e-11
4.39488e-11
5.21147e-11
6.3273e-11
7.83083e-11
9.76096e-11
1.2204e-10
1.52404e-10
1.89681e-10
2.35159e-10
2.90434e-10
3.57898e-10
4.39343e-10
5.36812e-10
6.51727e-10
7.88231e-10
9.45057e-10
1.13044e-09
1.33252e-09
1.57838e-09
1.82299e-09
2.15403e-09
2.41006e-09
2.8855e-09
3.00716e-09
3.99503e-09
8.79804e-13
4.27905e-13
3.03137e-13
2.49122e-13
2.84487e-13
3.25275e-13
3.65447e-13
4.26292e-13
5.06131e-13
6.15601e-13
7.63435e-13
9.53353e-13
1.19412e-12
1.49364e-12
1.86162e-12
2.31113e-12
2.85759e-12
3.5249e-12
4.33004e-12
5.2939e-12
6.42827e-12
7.77622e-12
9.32156e-12
1.11475e-11
1.31318e-11
1.5552e-11
1.79397e-11
2.11994e-11
2.36648e-11
2.83662e-11
2.9415e-11
3.91948e-11
2.13305e-05
1.92541e-05
1.77449e-05
1.69772e-05
1.50911e-05
1.31094e-05
1.14381e-05
1.03909e-05
1.02319e-05
1.08105e-05
1.21017e-05
1.40051e-05
1.64147e-05
1.9255e-05
2.25109e-05
2.60242e-05
2.97474e-05
3.38256e-05
3.80721e-05
4.26788e-05
4.75076e-05
5.24774e-05
5.76292e-05
6.28362e-05
6.78801e-05
7.31153e-05
7.82056e-05
8.35748e-05
8.80829e-05
9.37745e-05
9.68899e-05
0.000106779
2.12394e-05
1.90458e-05
1.68255e-05
1.52214e-05
1.30484e-05
1.11729e-05
9.94824e-06
9.39121e-06
9.51445e-06
1.02205e-05
1.14646e-05
1.31933e-05
1.53817e-05
1.80311e-05
2.11189e-05
2.44394e-05
2.79872e-05
3.19424e-05
3.62064e-05
4.07087e-05
4.54066e-05
5.029e-05
5.53122e-05
6.03858e-05
6.53268e-05
7.04454e-05
7.53854e-05
8.06314e-05
8.50332e-05
9.06101e-05
9.36348e-05
0.000103323
2.10997e-05
1.84883e-05
1.48434e-05
1.24037e-05
1.02942e-05
8.84918e-06
8.14451e-06
8.02006e-06
8.36364e-06
9.12368e-06
1.02782e-05
1.18362e-05
1.38088e-05
1.62156e-05
1.90109e-05
2.20672e-05
2.53731e-05
2.90947e-05
3.32249e-05
3.75094e-05
4.1975e-05
4.66511e-05
5.14523e-05
5.63251e-05
6.10926e-05
6.60374e-05
7.07805e-05
7.5854e-05
8.00966e-05
8.55042e-05
8.83917e-05
9.7765e-05
2.10013e-05
1.71521e-05
1.20422e-05
9.41839e-06
7.78962e-06
6.8877e-06
6.57258e-06
6.69481e-06
7.13898e-06
7.88641e-06
8.9398e-06
1.03356e-05
1.20835e-05
1.41989e-05
1.66494e-05
1.93773e-05
2.23747e-05
2.57685e-05
2.93782e-05
3.35471e-05
3.77108e-05
4.20985e-05
4.66167e-05
5.12391e-05
5.5785e-05
6.05137e-05
6.50349e-05
6.99131e-05
7.39744e-05
7.91891e-05
8.19222e-05
9.09199e-05
2.09929e-05
1.47325e-05
9.06936e-06
6.92218e-06
5.8661e-06
5.39317e-06
5.31639e-06
5.55037e-06
6.01624e-06
6.70809e-06
7.6414e-06
8.85143e-06
1.03507e-05
1.21526e-05
1.42439e-05
1.66044e-05
1.92357e-05
2.22305e-05
2.55345e-05
2.92042e-05
3.30164e-05
3.70554e-05
4.12423e-05
4.5566e-05
4.98411e-05
5.43151e-05
5.85938e-05
6.32529e-05
6.71201e-05
7.21308e-05
7.47071e-05
8.33025e-05
2.0971e-05
1.14849e-05
6.54473e-06
5.07367e-06
4.45487e-06
4.25355e-06
4.30452e-06
4.5718e-06
5.00995e-06
5.62097e-06
6.42359e-06
7.44585e-06
8.7004e-06
1.02005e-05
1.19437e-05
1.39303e-05
1.61702e-05
1.87353e-05
2.16065e-05
2.47554e-05
2.82012e-05
3.18497e-05
3.56589e-05
3.96332e-05
4.35973e-05
4.77699e-05
5.17731e-05
5.61803e-05
5.98371e-05
6.46293e-05
6.70482e-05
7.52407e-05
2.061e-05
8.17811e-06
4.66728e-06
3.74483e-06
3.40456e-06
3.35602e-06
3.46463e-06
3.72437e-06
4.11166e-06
4.63328e-06
5.30758e-06
6.15489e-06
7.18645e-06
8.41401e-06
9.84022e-06
1.14737e-05
1.33291e-05
1.54662e-05
1.78836e-05
2.05586e-05
2.3487e-05
2.67245e-05
3.01243e-05
3.37057e-05
3.73073e-05
4.11404e-05
4.48244e-05
4.89335e-05
5.23456e-05
5.68882e-05
5.91446e-05
6.69184e-05
1.94546e-05
5.51747e-06
3.33378e-06
2.77351e-06
2.59758e-06
2.62648e-06
2.75203e-06
2.98457e-06
3.31299e-06
3.74678e-06
4.30227e-06
4.99358e-06
5.83047e-06
6.82112e-06
7.97104e-06
9.29e-06
1.07945e-05
1.25324e-05
1.4513e-05
1.67292e-05
1.91749e-05
2.18833e-05
2.48236e-05
2.79858e-05
3.11871e-05
3.46304e-05
3.79552e-05
4.17151e-05
4.48378e-05
4.90717e-05
5.11483e-05
5.84553e-05
1.71495e-05
3.65543e-06
2.3819e-06
2.03975e-06
1.9585e-06
2.01976e-06
2.14004e-06
2.33722e-06
2.6069e-06
2.95902e-06
3.40762e-06
3.963e-06
4.63206e-06
5.42195e-06
6.33732e-06
7.38712e-06
8.58629e-06
9.97265e-06
1.15587e-05
1.33467e-05
1.53373e-05
1.75596e-05
1.99824e-05
2.26381e-05
2.54021e-05
2.84183e-05
3.13482e-05
3.47062e-05
3.74999e-05
4.13542e-05
4.3221e-05
4.99642e-05
1.35811e-05
2.40973e-06
1.6819e-06
1.46829e-06
1.44006e-06
1.50845e-06
1.61269e-06
1.77268e-06
1.98715e-06
2.26554e-06
2.61976e-06
3.05692e-06
3.58269e-06
4.20288e-06
4.92108e-06
5.74522e-06
6.68729e-06
7.776e-06
9.02315e-06
1.04341e-05
1.2013e-05
1.37886e-05
1.5739e-05
1.78955e-05
2.01567e-05
2.26745e-05
2.51679e-05
2.80776e-05
3.05088e-05
3.39211e-05
3.55542e-05
4.16084e-05
9.12112e-06
1.56842e-06
1.15051e-06
1.01555e-06
1.01533e-06
1.07783e-06
1.16182e-06
1.28585e-06
1.45e-06
1.66262e-06
1.93354e-06
2.26782e-06
2.67046e-06
3.14609e-06
3.69816e-06
4.33314e-06
5.06062e-06
5.90208e-06
6.86685e-06
7.96005e-06
9.18781e-06
1.05728e-05
1.2101e-05
1.38038e-05
1.56016e-05
1.76247e-05
1.96398e-05
2.20333e-05
2.40549e-05
2.69584e-05
2.83427e-05
3.35942e-05
4.91287e-06
9.83503e-07
7.43816e-07
6.60516e-07
6.72558e-07
7.23003e-07
7.85772e-07
8.76369e-07
9.95265e-07
1.14941e-06
1.34659e-06
1.59062e-06
1.88579e-06
2.23615e-06
2.64524e-06
3.11851e-06
3.66362e-06
4.29708e-06
5.02538e-06
5.85453e-06
6.78727e-06
7.84238e-06
9.01113e-06
1.03187e-05
1.17061e-05
1.32777e-05
1.48518e-05
1.67405e-05
1.83445e-05
2.06864e-05
2.17965e-05
2.61251e-05
2.16129e-06
5.74842e-07
4.42583e-07
3.94037e-07
4.0839e-07
4.44426e-07
4.87002e-07
5.47659e-07
6.26818e-07
7.29906e-07
8.62414e-07
1.02734e-06
1.22825e-06
1.46843e-06
1.75122e-06
2.08168e-06
2.46575e-06
2.91562e-06
3.43734e-06
4.03513e-06
4.71235e-06
5.4831e-06
6.33972e-06
7.30307e-06
8.32999e-06
9.4993e-06
1.06756e-05
1.20966e-05
1.33093e-05
1.50988e-05
1.59456e-05
1.93044e-05
8.53182e-07
3.02645e-07
2.35088e-07
2.0902e-07
2.20284e-07
2.42406e-07
2.67603e-07
3.03301e-07
3.4984e-07
4.1072e-07
4.89599e-07
5.88318e-07
7.09461e-07
8.55556e-07
1.02926e-06
1.2342e-06
1.47509e-06
1.76026e-06
2.09418e-06
2.48125e-06
2.92388e-06
3.43236e-06
4.00256e-06
4.64897e-06
5.34257e-06
6.13901e-06
6.94424e-06
7.92612e-06
8.76596e-06
1.00228e-05
1.0611e-05
1.30048e-05
3.09101e-07
1.37994e-07
1.07141e-07
9.46831e-08
1.01308e-07
1.1249e-07
1.24847e-07
1.42414e-07
1.65287e-07
1.95418e-07
2.34723e-07
2.84165e-07
3.45238e-07
4.19424e-07
5.0831e-07
6.14107e-07
7.39645e-07
8.89553e-07
1.06689e-06
1.27439e-06
1.51429e-06
1.79257e-06
2.10779e-06
2.46925e-06
2.8604e-06
3.31498e-06
3.77705e-06
4.34986e-06
4.83878e-06
5.58962e-06
5.92864e-06
7.38733e-06
9.85181e-08
5.16274e-08
3.97096e-08
3.47282e-08
3.76533e-08
4.20678e-08
4.68051e-08
5.35931e-08
6.24289e-08
7.41337e-08
8.9482e-08
1.08839e-07
1.32832e-07
1.62075e-07
1.97266e-07
2.39345e-07
2.89526e-07
3.49738e-07
4.21315e-07
5.05565e-07
6.03526e-07
7.17921e-07
8.48237e-07
9.98955e-07
1.16287e-06
1.35562e-06
1.55181e-06
1.79962e-06
2.00901e-06
2.34216e-06
2.48254e-06
3.14371e-06
2.60591e-08
1.48029e-08
1.12103e-08
9.67534e-09
1.06099e-08
1.18923e-08
1.3228e-08
1.51625e-08
1.76757e-08
2.10207e-08
2.54137e-08
3.09489e-08
3.78087e-08
4.61557e-08
5.61972e-08
6.82011e-08
8.24999e-08
9.96532e-08
1.20004e-07
1.43971e-07
1.71791e-07
2.04308e-07
2.41285e-07
2.84145e-07
3.30653e-07
3.85743e-07
4.41301e-07
5.12695e-07
5.71507e-07
6.69003e-07
7.0552e-07
9.00924e-07
5.03757e-09
2.90856e-09
2.16559e-09
1.84375e-09
2.04237e-09
2.29347e-09
2.54723e-09
2.9198e-09
3.40186e-09
4.04565e-09
4.89223e-09
5.9547e-09
7.268e-09
8.86155e-09
1.07708e-08
1.30461e-08
1.57471e-08
1.89716e-08
2.2782e-08
2.72471e-08
3.24058e-08
3.84157e-08
4.52033e-08
5.30634e-08
6.153e-08
7.15878e-08
8.15776e-08
9.46186e-08
1.04978e-07
1.22943e-07
1.28633e-07
1.64721e-07
4.92258e-10
2.77941e-10
2.04098e-10
1.71809e-10
1.91992e-10
2.15936e-10
2.39517e-10
2.74491e-10
3.19654e-10
3.80091e-10
4.59542e-10
5.58988e-10
6.81571e-10
8.29703e-10
1.00674e-09
1.2169e-09
1.46545e-09
1.761e-09
2.10847e-09
2.51404e-09
2.98042e-09
3.5211e-09
4.12925e-09
4.83173e-09
5.58228e-09
6.47688e-09
7.35346e-09
8.51423e-09
9.40454e-09
1.10145e-08
1.14411e-08
1.46829e-08
4.85907e-12
2.66803e-12
1.95101e-12
1.6332e-12
1.83811e-12
2.0711e-12
2.29685e-12
2.63364e-12
3.06697e-12
3.64735e-12
4.41098e-12
5.36438e-12
6.53713e-12
7.95293e-12
9.64068e-12
1.1641e-11
1.40033e-11
1.6805e-11
2.00928e-11
2.39211e-11
2.83135e-11
3.34012e-11
3.9098e-11
4.56833e-11
5.26941e-11
6.10691e-11
6.9201e-11
8.00787e-11
8.82431e-11
1.03425e-10
1.06961e-10
1.37609e-10
7.02581e-05
8.41172e-05
8.12114e-05
7.93698e-05
7.30663e-05
6.54143e-05
5.80218e-05
5.22752e-05
4.98198e-05
5.0176e-05
5.30042e-05
5.75716e-05
6.32024e-05
6.94866e-05
7.62975e-05
8.31994e-05
9.01128e-05
9.72011e-05
0.000104306
0.000111901
0.00011967
0.000127468
0.000135427
0.000143271
0.000150747
0.000158391
0.000165876
0.000173526
0.00018007
0.000187879
0.000192586
0.000205933
7.0084e-05
8.36708e-05
7.89271e-05
7.46136e-05
6.67721e-05
5.85635e-05
5.21258e-05
4.80292e-05
4.67316e-05
4.77516e-05
5.06274e-05
5.48715e-05
6.01364e-05
6.62323e-05
7.29535e-05
7.96952e-05
8.64896e-05
9.36623e-05
0.000100999
0.000108584
0.000116291
0.000124096
0.00013197
0.000139713
0.000147125
0.000154664
0.000161978
0.000169512
0.000175966
0.000183676
0.000188284
0.000201425
6.98152e-05
8.24716e-05
7.3687e-05
6.60195e-05
5.69263e-05
4.90268e-05
4.40801e-05
4.17347e-05
4.15708e-05
4.31502e-05
4.60984e-05
5.02239e-05
5.53225e-05
6.12539e-05
6.77188e-05
7.4295e-05
8.09804e-05
8.81826e-05
9.55812e-05
0.000103053
0.000110613
0.000118304
0.000126028
0.000133644
0.00014096
0.000148366
0.000155495
0.000162872
0.00016919
0.00017677
0.000181254
0.000194103
6.96155e-05
7.94923e-05
6.52641e-05
5.5028e-05
4.60177e-05
3.9504e-05
3.61415e-05
3.51365e-05
3.57861e-05
3.77498e-05
4.07919e-05
4.48771e-05
4.9814e-05
5.54642e-05
6.15694e-05
6.78863e-05
7.43794e-05
8.13775e-05
8.8615e-05
9.5906e-05
0.000103268
0.000110777
0.000118313
0.000125779
0.000132973
0.000140246
0.000147197
0.000154417
0.000160584
0.000168015
0.000172369
0.00018491
6.9573e-05
7.36311e-05
5.4381e-05
4.35058e-05
3.58674e-05
3.11896e-05
2.92038e-05
2.91031e-05
3.02571e-05
3.24067e-05
3.5421e-05
3.93154e-05
4.39482e-05
4.91988e-05
5.48749e-05
6.08271e-05
6.70127e-05
7.36661e-05
8.0615e-05
8.76556e-05
9.47644e-05
0.000102031
0.00010934
0.000116624
0.000123667
0.000130792
0.000137578
0.000144656
0.000150681
0.000157956
0.000162189
0.000174418
6.94997e-05
6.44522e-05
4.26036e-05
3.29779e-05
2.72604e-05
2.42934e-05
2.33426e-05
2.37758e-05
2.51514e-05
2.72951e-05
3.01458e-05
3.37337e-05
3.79631e-05
4.27436e-05
4.79332e-05
5.34316e-05
5.9205e-05
6.5421e-05
7.19626e-05
7.86706e-05
8.54879e-05
9.24579e-05
9.94911e-05
0.000106547
0.000113402
0.000120356
0.00012697
0.000133903
0.000139796
0.000146928
0.000151053
0.000162964
6.88384e-05
5.25448e-05
3.15319e-05
2.41827e-05
2.03193e-05
1.86736e-05
1.84031e-05
1.91011e-05
2.05001e-05
2.25004e-05
2.50873e-05
2.8295e-05
3.20641e-05
3.63289e-05
4.09866e-05
4.59694e-05
5.12508e-05
5.69574e-05
6.30074e-05
6.9279e-05
7.57213e-05
8.23572e-05
8.906e-05
9.58258e-05
0.000102436
0.000109171
0.000115581
0.000122344
0.000128091
0.000135081
0.000139107
0.000150722
6.68487e-05
3.95227e-05
2.21977e-05
1.72568e-05
1.48776e-05
1.41234e-05
1.42444e-05
1.50255e-05
1.63238e-05
1.80971e-05
2.03582e-05
2.31424e-05
2.64164e-05
3.01378e-05
3.42328e-05
3.86547e-05
4.33859e-05
4.85267e-05
5.40219e-05
5.97709e-05
6.57336e-05
7.19355e-05
7.82609e-05
8.46786e-05
9.09696e-05
9.74236e-05
0.000103578
0.000110112
0.000115674
0.000122483
0.000126394
0.000137707
6.29259e-05
2.72164e-05
1.49877e-05
1.20117e-05
1.06793e-05
1.04541e-05
1.07608e-05
1.15109e-05
1.26416e-05
1.41441e-05
1.60482e-05
1.83884e-05
2.11495e-05
2.43097e-05
2.78194e-05
3.16503e-05
3.57905e-05
4.03214e-05
4.52048e-05
5.03644e-05
5.57654e-05
6.14309e-05
6.72608e-05
7.32436e-05
7.9157e-05
8.52435e-05
9.1074e-05
9.73016e-05
0.000102615
0.000109175
0.000112926
0.000123856
5.65406e-05
1.70965e-05
9.76997e-06
8.11982e-06
7.45535e-06
7.50163e-06
7.86063e-06
8.51646e-06
9.44868e-06
1.06674e-05
1.22084e-05
1.41035e-05
1.63513e-05
1.89453e-05
2.18565e-05
2.5074e-05
2.85914e-05
3.24749e-05
3.67005e-05
4.12121e-05
4.59793e-05
5.10232e-05
5.62589e-05
6.16839e-05
6.7091e-05
7.2722e-05
7.81331e-05
8.39651e-05
8.89451e-05
9.51585e-05
9.86896e-05
0.000109086
4.71197e-05
9.88785e-06
6.12387e-06
5.25852e-06
4.9819e-06
5.1363e-06
5.46813e-06
5.99734e-06
6.72206e-06
7.66136e-06
8.84957e-06
1.03141e-05
1.20618e-05
1.40971e-05
1.64091e-05
1.89959e-05
2.18632e-05
2.50656e-05
2.85889e-05
3.23951e-05
3.6459e-05
4.08005e-05
4.53482e-05
5.01086e-05
5.4895e-05
5.99242e-05
6.47846e-05
7.00903e-05
7.46288e-05
8.03688e-05
8.36022e-05
9.32672e-05
3.43711e-05
5.35066e-06
3.62465e-06
3.1886e-06
3.11149e-06
3.27794e-06
3.53936e-06
3.92767e-06
4.44784e-06
5.12031e-06
5.97421e-06
7.03107e-06
8.30177e-06
9.79582e-06
1.15154e-05
1.34664e-05
1.56612e-05
1.81458e-05
2.09185e-05
2.39556e-05
2.7241e-05
3.07945e-05
3.45552e-05
3.8537e-05
4.25779e-05
4.68705e-05
5.10499e-05
5.56651e-05
5.96181e-05
6.47117e-05
6.75373e-05
7.62097e-05
1.94225e-05
2.70832e-06
1.97069e-06
1.759e-06
1.76362e-06
1.89264e-06
2.06767e-06
2.31872e-06
2.65092e-06
3.08117e-06
3.63141e-06
4.31624e-06
5.14751e-06
6.13572e-06
7.28777e-06
8.61525e-06
1.01334e-05
1.18787e-05
1.38588e-05
1.60651e-05
1.84914e-05
2.11573e-05
2.40187e-05
2.70952e-05
3.02552e-05
3.36633e-05
3.70019e-05
4.07533e-05
4.39661e-05
4.82129e-05
5.05071e-05
5.78482e-05
7.06037e-06
1.24748e-06
9.49754e-07
8.5214e-07
8.7479e-07
9.52515e-07
1.04927e-06
1.1861e-06
1.36573e-06
1.59979e-06
1.90125e-06
2.27881e-06
2.74104e-06
3.2962e-06
3.95165e-06
4.7182e-06
5.60907e-06
6.6501e-06
7.85192e-06
9.21679e-06
1.0747e-05
1.24608e-05
1.43336e-05
1.6389e-05
1.85351e-05
2.08973e-05
2.3236e-05
2.59286e-05
2.82362e-05
3.13931e-05
3.30338e-05
3.86265e-05
1.68293e-06
4.94034e-07
3.83399e-07
3.42666e-07
3.58583e-07
3.94022e-07
4.35471e-07
4.94e-07
5.7046e-07
6.70497e-07
8.0007e-07
9.62588e-07
1.16245e-06
1.40382e-06
1.69096e-06
2.02991e-06
2.42828e-06
2.89939e-06
3.45077e-06
4.08745e-06
4.81347e-06
5.64211e-06
6.56589e-06
7.60299e-06
8.70651e-06
9.95374e-06
1.12058e-05
1.26967e-05
1.39753e-05
1.5814e-05
1.6717e-05
2.0107e-05
3.73287e-07
1.65865e-07
1.28734e-07
1.13888e-07
1.21082e-07
1.33704e-07
1.47697e-07
1.6759e-07
1.93438e-07
2.27371e-07
2.7139e-07
3.26506e-07
3.94215e-07
4.75908e-07
5.73183e-07
6.88279e-07
8.23826e-07
9.84759e-07
1.17374e-06
1.39342e-06
1.64536e-06
1.93593e-06
2.2622e-06
2.63357e-06
3.03259e-06
3.4929e-06
3.95699e-06
4.52818e-06
5.0121e-06
5.75107e-06
6.08067e-06
7.50019e-06
7.94654e-08
4.45846e-08
3.42458e-08
2.98961e-08
3.22143e-08
3.5651e-08
3.92823e-08
4.45016e-08
5.12471e-08
6.01213e-08
7.16343e-08
8.59711e-08
1.03511e-07
1.24578e-07
1.49587e-07
1.79071e-07
2.13715e-07
2.54718e-07
3.02725e-07