/*--------------------------------*- C++ -*----------------------------------*\
| =========                 |                                                 |
| \\      /  F ield         | OpenFOAM: The Open Source CFD Toolbox           |
|  \\    /   O peration     | Version:  2.4.0                                 |
|   \\  /    A nd           | Web:      www.OpenFOAM.org                      |
|    \\/     M anipulation  |                                                 |
\*---------------------------------------------------------------------------*/
FoamFile
{
    version     2.0;
    format      ascii;
    class       volScalarField;
    location    "3000";
    object      Cp;
}
// * * * * * * * * * * * * * * * * * * * * * * * * * * * * * * * * * * * * * //

dimensions      [0 2 -2 -1 0 0 0];

internalField   nonuniform List<scalar> 
38400
(
3166.41
3219.78
3229.39
3235.46
3243.17
3251.73
3260.33
3268.1
3273.72
3277.14
3278.54
3278.55
3277.84
3276.85
3275.8
3275.03
3274.56
3274.33
3274.32
3274.27
3274.28
3274.38
3274.48
3274.69
3275.06
3275.4
3275.67
3275.93
3276.28
3276.62
3276.86
3277.58
3166.58
3220.2
3231.42
3239.54
3248.55
3257.69
3265.91
3272.72
3277.55
3280.5
3281.82
3282
3281.47
3280.54
3279.47
3278.68
3278.17
3277.76
3277.55
3277.39
3277.31
3277.32
3277.36
3277.51
3277.81
3278.11
3278.36
3278.59
3278.88
3279.19
3279.37
3280.05
3166.83
3221.38
3236.04
3246.84
3257
3266.33
3273.91
3279.67
3283.69
3286.14
3287.31
3287.47
3286.95
3286
3284.93
3284.07
3283.45
3282.85
3282.44
3282.16
3281.98
3281.88
3281.83
3281.89
3282.08
3282.3
3282.49
3282.68
3282.89
3283.12
3283.22
3283.83
3166.97
3224.31
3243.3
3256.2
3266.76
3275.69
3282.49
3287.37
3290.68
3292.67
3293.59
3293.61
3293.02
3292.06
3291.01
3290.11
3289.39
3288.68
3288.04
3287.72
3287.45
3287.25
3287.1
3287.05
3287.12
3287.23
3287.33
3287.43
3287.56
3287.7
3287.7
3288.21
3166.93
3229.88
3252.62
3266.44
3276.7
3284.83
3290.81
3294.93
3297.64
3299.22
3299.9
3299.8
3299.17
3298.23
3297.21
3296.28
3295.5
3294.74
3294.04
3293.56
3293.21
3292.91
3292.66
3292.51
3292.45
3292.44
3292.42
3292.43
3292.44
3292.51
3292.4
3292.8
3166.91
3238.2
3263.04
3276.78
3286.26
3293.44
3298.61
3302.09
3304.31
3305.55
3306.02
3305.83
3305.18
3304.26
3303.26
3302.34
3301.53
3300.73
3300
3299.39
3298.95
3298.58
3298.25
3297.99
3297.8
3297.67
3297.54
3297.43
3297.33
3297.3
3297.07
3297.38
3167.61
3248.58
3273.87
3286.79
3295.26
3301.48
3305.91
3308.83
3310.63
3311.59
3311.89
3311.62
3310.96
3310.05
3309.08
3308.16
3307.33
3306.53
3305.76
3305.1
3304.54
3304.08
3303.68
3303.34
3303.05
3302.8
3302.56
3302.34
3302.11
3301.96
3301.62
3301.81
3170.02
3260.09
3284.68
3296.3
3303.71
3309.02
3312.77
3315.21
3316.66
3317.38
3317.53
3317.19
3316.51
3315.61
3314.65
3313.73
3312.89
3312.07
3311.29
3310.59
3309.98
3309.42
3308.91
3308.48
3308.11
3307.77
3307.42
3307.08
3306.75
3306.48
3306.03
3306.07
3175.04
3272.11
3295.22
3305.35
3311.7
3316.19
3319.32
3321.32
3322.46
3322.96
3322.98
3322.57
3321.86
3320.96
3320.01
3319.08
3318.22
3317.39
3316.59
3315.85
3315.19
3314.57
3313.98
3313.44
3312.97
3312.54
3312.1
3311.67
3311.22
3310.85
3310.29
3310.18
3183.17
3284.42
3305.37
3313.98
3319.32
3323.03
3325.59
3327.18
3328.04
3328.35
3328.25
3327.78
3327.05
3326.15
3325.2
3324.27
3323.39
3322.54
3321.71
3320.94
3320.22
3319.55
3318.9
3318.28
3317.71
3317.16
3316.62
3316.09
3315.55
3315.07
3314.42
3314.17
3194.2
3296.73
3315.01
3322.12
3326.48
3329.48
3331.5
3332.72
3333.33
3333.49
3333.29
3332.78
3332.05
3331.17
3330.23
3329.3
3328.42
3327.55
3326.69
3325.89
3325.13
3324.4
3323.68
3323
3322.35
3321.71
3321.07
3320.44
3319.79
3319.21
3318.46
3318.07
3207.26
3308.59
3323.85
3329.54
3332.99
3335.33
3336.88
3337.79
3338.19
3338.23
3337.97
3337.45
3336.74
3335.9
3335.01
3334.12
3333.25
3332.38
3331.52
3330.69
3329.9
3329.13
3328.36
3327.62
3326.9
3326.19
3325.47
3324.76
3324.01
3323.33
3322.48
3321.96
3221.8
3319.39
3331.58
3336.01
3338.66
3340.43
3341.58
3342.22
3342.47
3342.42
3342.13
3341.63
3340.97
3340.2
3339.37
3338.54
3337.72
3336.89
3336.05
3335.23
3334.44
3333.64
3332.85
3332.07
3331.3
3330.54
3329.75
3328.97
3328.15
3327.39
3326.47
3325.83
3238.09
3328.72
3338.1
3341.45
3343.43
3344.72
3345.55
3345.97
3346.09
3345.98
3345.68
3345.21
3344.61
3343.92
3343.18
3342.43
3341.67
3340.9
3340.11
3339.33
3338.55
3337.78
3336.99
3336.2
3335.41
3334.61
3333.79
3332.97
3332.1
3331.29
3330.3
3329.58
3256.56
3336.52
3343.49
3345.95
3347.36
3348.27
3348.82
3349.07
3349.09
3348.94
3348.63
3348.2
3347.66
3347.04
3346.38
3345.7
3345.02
3344.31
3343.59
3342.85
3342.12
3341.37
3340.6
3339.82
3339.03
3338.24
3337.4
3336.57
3335.66
3334.82
3333.79
3333.03
3276.9
3342.93
3347.9
3349.62
3350.58
3351.17
3351.5
3351.61
3351.55
3351.36
3351.05
3350.64
3350.16
3349.61
3349.02
3348.41
3347.79
3347.14
3346.47
3345.78
3345.08
3344.37
3343.63
3342.87
3342.09
3341.3
3340.46
3339.62
3338.7
3337.85
3336.78
3336.01
3297.96
3348.15
3351.49
3352.61
3353.2
3353.53
3353.68
3353.67
3353.55
3353.32
3353.02
3352.64
3352.2
3351.7
3351.17
3350.62
3350.04
3349.45
3348.82
3348.18
3347.51
3346.83
3346.11
3345.37
3344.61
3343.82
3342.98
3342.14
3341.21
3340.35
3339.26
3338.48
3318.33
3352.4
3354.41
3355.05
3355.34
3355.45
3355.45
3355.35
3355.18
3354.93
3354.62
3354.26
3353.85
3353.4
3352.92
3352.41
3351.88
3351.32
3350.74
3350.13
3349.49
3348.83
3348.13
3347.41
3346.65
3345.87
3345.03
3344.2
3343.25
3342.39
3341.28
3340.49
3336.88
3355.86
3356.78
3357.03
3357.07
3357.01
3356.9
3356.72
3356.5
3356.23
3355.93
3355.58
3355.2
3354.79
3354.34
3353.87
3353.38
3352.85
3352.29
3351.71
3351.1
3350.45
3349.77
3349.06
3348.31
3347.54
3346.7
3345.86
3344.91
3344.04
3342.91
3342.12
3352.95
3358.66
3358.71
3358.64
3358.49
3358.28
3358.07
3357.83
3357.57
3357.29
3356.99
3356.66
3356.3
3355.91
3355.5
3355.06
3354.59
3354.09
3353.56
3353
3352.4
3351.77
3351.11
3350.41
3349.66
3348.89
3348.05
3347.21
3346.25
3345.38
3344.24
3343.45
2758.61
2874.08
2908.14
2930.19
2958.38
2989.87
3021.6
3050.34
3071.35
3084.55
3090.65
3091.96
3090.87
3088.97
3087.03
3086.24
3086.69
3087.95
3090.05
3092.35
3095.13
3098.5
3102.09
3106.24
3111.02
3115.98
3120.82
3125.96
3131.13
3136.81
3141.17
3149.84
2758.87
2875.48
2915.18
2944.58
2977.54
3011.21
3041.56
3066.81
3084.99
3096.44
3102.24
3104.12
3103.61
3101.86
3099.77
3098.83
3099.02
3099.7
3100.96
3102.73
3105.1
3107.98
3111.19
3114.98
3119.35
3123.96
3128.51
3133.31
3138.14
3143.46
3147.56
3155.71
2759.25
2879.42
2931.31
2970.49
3007.82
3042.2
3070.16
3091.56
3106.72
3116.35
3121.51
3123.25
3122.69
3120.79
3118.63
3117.35
3117.05
3116.96
3117.43
3118.6
3120.42
3122.71
3125.39
3128.62
3132.39
3136.42
3140.48
3144.74
3149.05
3153.84
3157.51
3164.87
2759.47
2889.26
2957.01
3004.03
3042.84
3075.66
3100.69
3118.75
3131.3
3139.2
3143.4
3144.56
3143.7
3141.7
3139.51
3137.95
3137.18
3136.61
3136.46
3137.12
3138.37
3140.07
3142.15
3144.75
3147.85
3151.23
3154.69
3158.34
3162.05
3166.19
3169.39
3175.84
2759.37
2908.34
2990.33
3040.83
3078.38
3108.14
3130.03
3145.27
3155.58
3161.94
3165.22
3165.9
3164.85
3162.83
3160.65
3158.91
3157.82
3156.92
3156.39
3156.55
3157.29
3158.44
3159.95
3161.92
3164.36
3167.08
3169.92
3172.92
3176.02
3179.5
3182.2
3187.71
2759.31
2937.45
3027.8
3077.86
3112.36
3138.46
3157.3
3170.15
3178.62
3183.72
3186.22
3186.54
3185.36
3183.35
3181.19
3179.36
3178.05
3176.95
3176.15
3175.9
3176.21
3176.89
3177.89
3179.28
3181.1
3183.2
3185.43
3187.81
3190.32
3193.15
3195.37
3199.95
2760.39
2974.45
3066.71
3113.45
3144.03
3166.5
3182.56
3193.35
3200.3
3204.37
3206.23
3206.23
3204.95
3202.95
3200.81
3198.93
3197.48
3196.22
3195.23
3194.7
3194.63
3194.91
3195.47
3196.37
3197.64
3199.16
3200.82
3202.63
3204.58
3206.8
3208.55
3212.26
2764.5
3015.84
3105.26
3146.94
3173.45
3192.55
3206.11
3215.13
3220.8
3223.98
3225.3
3225.02
3223.64
3221.63
3219.48
3217.55
3215.99
3214.61
3213.47
3212.72
3212.36
3212.28
3212.46
3212.93
3213.74
3214.75
3215.91
3217.18
3218.62
3220.27
3221.58
3224.48
2774.3
3059.1
3142.43
3178.42
3200.99
3217.05
3228.35
3235.77
3240.32
3242.74
3243.57
3243.03
3241.55
3239.5
3237.34
3235.35
3233.69
3232.19
3230.9
3229.96
3229.35
3228.99
3228.84
3228.93
3229.32
3229.9
3230.61
3231.41
3232.38
3233.52
3234.42
3236.57
2793.2
3103.04
3177.84
3208.11
3226.95
3240.2
3249.45
3255.42
3258.97
3260.72
3261.12
3260.36
3258.79
3256.73
3254.55
3252.52
3250.75
3249.14
3247.71
3246.57
3245.73
3245.11
3244.67
3244.44
3244.46
3244.65
3244.96
3245.35
3245.9
3246.58
3247.1
3248.57
2823.57
3146.53
3211.02
3235.8
3251.13
3261.8
3269.18
3273.87
3276.55
3277.76
3277.82
3276.91
3275.31
3273.28
3271.14
3269.1
3267.28
3265.58
3264.02
3262.72
3261.66
3260.8
3260.1
3259.58
3259.28
3259.11
3259.07
3259.08
3259.24
3259.51
3259.69
3260.53
2864.24
3187.87
3241.07
3260.78
3272.89
3281.28
3287.03
3290.62
3292.6
3293.38
3293.23
3292.28
3290.75
3288.85
3286.84
3284.9
3283.11
3281.39
3279.79
3278.37
3277.16
3276.11
3275.18
3274.41
3273.83
3273.36
3272.99
3272.67
3272.49
3272.39
3272.25
3272.55
2912.6
3225.01
3267.08
3282.34
3291.69
3298.12
3302.5
3305.2
3306.64
3307.13
3306.87
3305.97
3304.6
3302.92
3301.14
3299.38
3297.74
3296.13
3294.58
3293.17
3291.91
3290.76
3289.7
3288.76
3287.97
3287.27
3286.66
3286.07
3285.61
3285.19
3284.77
3284.6
2967.97
3256.66
3288.79
3300.34
3307.37
3312.2
3315.47
3317.45
3318.46
3318.75
3318.45
3317.66
3316.49
3315.08
3313.57
3312.07
3310.64
3309.22
3307.83
3306.53
3305.32
3304.19
3303.12
3302.13
3301.24
3300.41
3299.64
3298.89
3298.22
3297.58
3296.95
3296.45
3030.63
3282.73
3306.54
3315.06
3320.22
3323.74
3326.11
3327.52
3328.2
3328.33
3328.03
3327.35
3326.38
3325.22
3323.98
3322.74
3321.53
3320.33
3319.13
3317.99
3316.91
3315.87
3314.87
3313.91
3313.01
3312.15
3311.32
3310.49
3309.71
3308.95
3308.17
3307.49
3098.89
3303.88
3320.92
3327
3330.66
3333.13
3334.77
3335.71
3336.13
3336.15
3335.84
3335.26
3334.46
3333.52
3332.51
3331.49
3330.49
3329.48
3328.47
3327.48
3326.54
3325.61
3324.69
3323.79
3322.93
3322.08
3321.24
3320.4
3319.56
3318.75
3317.86
3317.12
3168.03
3320.95
3332.55
3336.67
3339.11
3340.73
3341.79
3342.36
3342.56
3342.48
3342.18
3341.67
3341.02
3340.25
3339.43
3338.59
3337.76
3336.92
3336.06
3335.21
3334.38
3333.54
3332.7
3331.87
3331.04
3330.22
3329.38
3328.54
3327.66
3326.83
3325.86
3325.11
3232.91
3334.72
3341.96
3344.5
3345.96
3346.9
3347.48
3347.74
3347.77
3347.62
3347.32
3346.88
3346.33
3345.71
3345.04
3344.35
3343.66
3342.95
3342.21
3341.47
3340.73
3339.97
3339.2
3338.42
3337.62
3336.82
3335.98
3335.14
3334.23
3333.39
3332.36
3331.59
3290.03
3345.84
3349.57
3350.84
3351.52
3351.9
3352.09
3352.11
3352
3351.79
3351.48
3351.1
3350.64
3350.13
3349.59
3349.02
3348.44
3347.83
3347.19
3346.54
3345.87
3345.17
3344.45
3343.71
3342.94
3342.15
3341.31
3340.48
3339.54
3338.69
3337.6
3336.82
3337.9
3354.83
3355.74
3355.98
3356.02
3355.96
3355.84
3355.66
3355.44
3355.17
3354.87
3354.52
3354.14
3353.72
3353.28
3352.81
3352.31
3351.79
3351.23
3350.65
3350.04
3349.39
3348.71
3348
3347.25
3346.47
3345.63
3344.8
3343.84
3342.97
3341.84
3341.05
3662.21
2813.37
2755.23
2742.24
2744.26
2762.06
2792.72
2829.34
2861.32
2884.57
2898.55
2906.15
2910.82
2914.83
2919.26
2925.43
2933.3
2942.08
2951.71
2961.58
2971.78
2982.31
2992.69
3003.29
3014.08
3024.78
3034.78
3044.92
3054.34
3064.6
3071.94
3086.84
3658.13
2811.1
2751.2
2741.63
2752.27
2779.49
2815.14
2851.37
2881.19
2902.52
2916.05
2924.11
2929.11
2932.79
2936.51
2942.03
2949.2
2957.03
2965.42
2974.43
2983.93
2993.74
3003.54
3013.62
3023.88
3034.1
3043.7
3053.42
3062.43
3072.26
3079.27
3093.54
3652.4
2804.85
2744.87
2747.4
2773.51
2812.57
2852.51
2887.23
2914.22
2933.25
2945.61
2952.95
2957.17
2959.86
2962.63
2966.99
2972.91
2979.33
2986.31
2994.15
3002.65
3011.51
3020.47
3029.73
3039.16
3048.61
3057.56
3066.6
3074.97
3084.16
3090.66
3103.99
3650.15
2790.73
2742.96
2767.46
2810.03
2857
2897.86
2929.8
2953.49
2969.84
2980.3
2986.11
2989.05
2990.64
2992.42
2995.51
3000.04
3005.1
3010.87
3017.42
3024.77
3032.56
3040.52
3048.82
3057.31
3065.87
3074.02
3082.27
3089.89
3098.31
3104.22
3116.47
3653.97
2768.99
2754.82
2804.33
2857.76
2906.66
2945.35
2973.71
2993.91
3007.48
3015.95
3020.28
3022.07
3022.67
3023.46
3025.35
3028.55
3032.35
3036.88
3042.28
3048.43
3055.09
3062.01
3069.29
3076.78
3084.41
3091.7
3099.11
3105.95
3113.55
3118.85
3129.97
3657.62
2749
2785.99
2853.92
2910.67
2957.04
2991.85
3016.44
3033.38
3044.44
3051.09
3054.15
3054.95
3054.69
3054.58
3055.39
3057.37
3060.01
3063.35
3067.63
3072.63
3078.16
3084
3090.23
3096.72
3103.39
3109.82
3116.37
3122.44
3129.22
3133.9
3143.89
3641.47
2745.59
2834.43
2909.86
2964.26
3005.88
3036.26
3057.23
3071.27
3080.17
3085.24
3087.2
3087.14
3086.14
3085.22
3085.08
3085.98
3087.54
3089.78
3092.93
3096.86
3101.28
3106.05
3111.23
3116.71
3122.43
3127.98
3133.68
3138.97
3144.95
3149.04
3157.91
3578.89
2769.01
2893.62
2967.24
3016.35
3052.52
3078.49
3096.11
3107.6
3114.61
3118.32
3119.32
3118.53
3116.87
3115.24
3114.28
3114.23
3114.8
3116.01
3118.08
3120.91
3124.29
3128.03
3132.18
3136.65
3141.4
3146.06
3150.92
3155.44
3160.62
3164.11
3171.89
3453.93
2818.26
2957.14
3023.65
3066.34
3097.05
3118.82
3133.35
3142.57
3147.92
3150.44
3150.59
3149.18
3146.96
3144.74
3143.05
3142.18
3141.85
3142.1
3143.15
3144.93
3147.25
3149.97
3153.12
3156.62
3160.41
3164.17
3168.16
3171.89
3176.26
3179.16
3185.85
3270.23
2885.14
3020.96
3078.12
3114.09
3139.53
3157.36
3169.06
3176.25
3180.16
3181.64
3181.09
3179.18
3176.52
3173.82
3171.56
3169.97
3168.85
3168.24
3168.34
3169.11
3170.41
3172.12
3174.26
3176.78
3179.62
3182.5
3185.6
3188.54
3192.07
3194.38
3199.94
3053.29
2960.63
3082.43
3129.6
3158.93
3179.42
3193.64
3202.8
3208.24
3210.95
3211.62
3210.56
3208.32
3205.42
3202.43
3199.76
3197.63
3195.88
3194.55
3193.81
3193.68
3194.02
3194.75
3195.9
3197.45
3199.32
3201.3
3203.51
3205.66
3208.33
3210.04
3214.41
2858.3
3036.9
3138.84
3176.37
3199.51
3215.55
3226.6
3233.62
3237.64
3239.45
3239.57
3238.27
3235.96
3233.05
3230.03
3227.21
3224.8
3222.64
3220.8
3219.44
3218.57
3218.09
3217.96
3218.21
3218.84
3219.78
3220.86
3222.16
3223.51
3225.28
3226.39
3229.53
2755.21
3107.23
3187.87
3216.83
3234.59
3246.86
3255.27
3260.54
3263.48
3264.67
3264.51
3263.21
3261.07
3258.42
3255.62
3252.94
3250.53
3248.28
3246.23
3244.52
3243.18
3242.14
3241.36
3240.89
3240.76
3240.87
3241.16
3241.62
3242.21
3243.1
3243.63
3245.5
2758.71
3167.51
3228.69
3250.47
3263.8
3272.99
3279.27
3283.17
3285.29
3286.06
3285.8
3284.64
3282.82
3280.57
3278.19
3275.86
3273.7
3271.62
3269.64
3267.9
3266.41
3265.1
3263.99
3263.08
3262.43
3261.96
3261.64
3261.44
3261.39
3261.52
3261.53
3262.27
2829.09
3216.9
3261.84
3277.84
3287.61
3294.33
3298.91
3301.72
3303.21
3303.7
3303.4
3302.43
3300.96
3299.15
3297.23
3295.32
3293.52
3291.75
3290.05
3288.48
3287.07
3285.77
3284.59
3283.53
3282.65
3281.88
3281.21
3280.6
3280.14
3279.74
3279.35
3279.25
2932.81
3256.57
3288.51
3299.9
3306.84
3311.59
3314.81
3316.76
3317.76
3318.03
3317.72
3316.93
3315.76
3314.35
3312.84
3311.33
3309.89
3308.46
3307.05
3305.73
3304.51
3303.35
3302.25
3301.23
3300.31
3299.45
3298.64
3297.86
3297.17
3296.51
3295.86
3295.32
3046.45
3288.27
3309.92
3317.66
3322.34
3325.52
3327.65
3328.91
3329.51
3329.61
3329.3
3328.66
3327.74
3326.66
3325.5
3324.33
3323.19
3322.05
3320.92
3319.84
3318.81
3317.8
3316.83
3315.9
3315.01
3314.16
3313.33
3312.51
3311.71
3310.94
3310.13
3309.44
3154.05
3313.62
3327.15
3331.96
3334.84
3336.76
3338.02
3338.73
3339.01
3338.97
3338.66
3338.13
3337.43
3336.6
3335.72
3334.82
3333.94
3333.04
3332.13
3331.24
3330.37
3329.51
3328.65
3327.81
3326.98
3326.15
3325.32
3324.49
3323.63
3322.83
3321.89
3321.16
3247.47
3333.95
3341.03
3343.51
3344.94
3345.85
3346.41
3346.67
3346.69
3346.54
3346.23
3345.8
3345.25
3344.64
3343.98
3343.3
3342.61
3341.9
3341.18
3340.45
3339.71
3338.96
3338.19
3337.41
3336.62
3335.83
3334.99
3334.16
3333.26
3332.42
3331.39
3330.63
3324.3
3350.3
3352.23
3352.84
3353.11
3353.21
3353.2
3353.1
3352.91
3352.67
3352.36
3352
3351.59
3351.14
3350.66
3350.16
3349.63
3349.07
3348.49
3347.88
3347.25
3346.59
3345.89
3345.17
3344.41
3343.63
3342.79
3341.96
3341.01
3340.15
3339.03
3338.25
7112.25
3522.21
3101.59
2938.79
2832.91
2767.73
2740
2741.07
2757.03
2775.66
2790.88
2802.2
2811.39
2820.1
2829.22
2839.9
2852.11
2865.19
2878.98
2892.94
2907.04
2921.26
2935.11
2948.95
2962.73
2976.25
2988.79
3001.35
3012.86
3025.3
3034.16
3052
7103.72
3511.22
3070.04
2896.96
2798.74
2749.69
2738.37
2749.73
2769.96
2789.99
2806.15
2818.44
2828.28
2836.98
2845.72
2856.03
2867.78
2880.14
2892.93
2906.13
2919.62
2933.18
2946.49
2959.83
2973.09
2986.14
2998.27
3010.41
3021.51
3033.53
3042.03
3059.23
7092.66
3480.11
3004.24
2834.81
2760.93
2739.29
2748.42
2770.62
2795.13
2816.52
2833.26
2845.73
2855.31
2863.36
2871.41
2880.81
2891.58
2902.75
2914.29
2926.46
2939.03
2951.69
2964.19
2976.75
2989.2
3001.5
3012.99
3024.46
3034.9
3046.26
3054.24
3070.48
7090.91
3407.17
2915.73
2778.17
2741.37
2748.42
2774.02
2803.28
2829.83
2851.2
2867.33
2878.87
2887.43
2894.48
2901.55
2909.77
2919.26
2929.17
2939.53
2950.49
2961.97
2973.62
2985.16
2996.78
3008.3
3019.72
3030.41
3041.09
3050.77
3061.37
3068.74
3083.87
7104.3
3280.97
2828.9
2746.09
2747
2775.99
2811.47
2843.58
2869.79
2889.79
2904.46
2914.62
2921.91
2927.78
2933.7
2940.62
2948.73
2957.33
2966.44
2976.24
2986.54
2997.08
3007.58
3018.19
3028.73
3039.21
3049.05
3058.89
3067.79
3077.57
3084.3
3098.3
7116.31
3118.27
2767.37
2744.45
2774.4
2816.37
2855.86
2887.75
2912.12
2930.02
2942.8
2951.39
2957.3
2961.92
2966.58
2972.15
2978.86
2986.13
2993.97
3002.55
3011.67
3021.06
3030.48
3040.04
3049.58
3059.11
3068.08
3077.07
3085.18
3094.14
3100.25
3113.1
7078.27
2955.6
2742.88
2769.43
2817.12
2864.48
2903.89
2933.68
2955.42
2970.87
2981.6
2988.51
2992.97
2996.27
2999.63
3003.84
3009.15
3015.08
3021.61
3028.93
3036.85
3045.08
3053.39
3061.89
3070.41
3078.98
3087.05
3095.2
3102.53
3110.69
3116.17
3127.92
6919.15
2829.23
2755.17
2814.04
2869.64
2917.06
2953.84
2980.48
2999.2
3012.07
3020.67
3025.84
3028.81
3030.76
3032.79
3035.62
3039.53
3044.09
3049.3
3055.3
3061.96
3069.01
3076.2
3083.62
3091.09
3098.69
3105.86
3113.15
3119.69
3127.06
3131.93
3142.6
6571.03
2758.32
2797.66
2871.95
2928.26
2972.3
3004.98
3027.88
3043.43
3053.68
3060.14
3063.55
3065.02
3065.58
3066.25
3067.7
3070.19
3073.37
3077.2
3081.85
3087.2
3092.99
3099.01
3105.31
3111.74
3118.31
3124.57
3130.96
3136.72
3143.27
3147.54
3157.12
5989.61
2746.57
2861.86
2938.2
2990.32
3028.91
3056.68
3075.59
3087.96
3095.68
3100.09
3101.8
3101.8
3101.02
3100.36
3100.43
3101.5
3103.26
3105.68
3108.92
3112.9
3117.38
3122.15
3127.26
3132.57
3138.1
3143.39
3148.86
3153.79
3159.5
3163.15
3171.6
5183.09
2788.89
2938.62
3008.13
3053.02
3085.1
3107.69
3122.69
3132.11
3137.55
3140.13
3140.37
3139.1
3137.13
3135.27
3134.05
3133.75
3134.11
3135.1
3136.92
3139.47
3142.56
3146.01
3149.86
3153.99
3158.38
3162.64
3167.13
3171.2
3176
3179.02
3186.25
4265.12
2870.33
3018.34
3076.38
3112.77
3138.25
3155.94
3167.42
3174.33
3177.95
3179.13
3178.31
3176.18
3173.37
3170.6
3168.36
3166.87
3165.96
3165.62
3166.05
3167.18
3168.87
3170.96
3173.48
3176.35
3179.53
3182.7
3186.12
3189.26
3193.07
3195.43
3201.34
3442.23
2967.14
3092.41
3138.02
3166.19
3185.72
3199.17
3207.76
3212.73
3215.05
3215.38
3214.03
3211.55
3208.43
3205.24
3202.41
3200.14
3198.29
3196.89
3196.12
3195.98
3196.35
3197.12
3198.33
3199.92
3201.86
3203.88
3206.15
3208.31
3211.04
3212.71
3217.17
2910.49
3059.04
3155.9
3190.32
3211.45
3226.03
3236.04
3242.36
3245.9
3247.4
3247.31
3245.89
3243.53
3240.59
3237.51
3234.63
3232.11
3229.82
3227.83
3226.3
3225.24
3224.57
3224.24
3224.29
3224.72
3225.47
3226.36
3227.49
3228.66
3230.25
3231.2
3234.1
2746.16
3136.82
3207.88
3233.08
3248.51
3259.15
3266.44
3270.99
3273.49
3274.45
3274.22
3272.96
3270.96
3268.49
3265.88
3263.34
3261.03
3258.82
3256.77
3255
3253.54
3252.32
3251.35
3250.63
3250.21
3250.02
3250
3250.13
3250.41
3250.94
3251.21
3252.56
2811.85
3199.48
3249.61
3267.49
3278.41
3285.93
3291.07
3294.25
3295.95
3296.54
3296.27
3295.24
3293.67
3291.74
3289.69
3287.67
3285.77
3283.92
3282.15
3280.54
3279.12
3277.84
3276.68
3275.69
3274.89
3274.22
3273.67
3273.19
3272.86
3272.63
3272.37
3272.53
2949.11
3249.18
3282.95
3295.04
3302.42
3307.47
3310.9
3312.99
3314.07
3314.39
3314.1
3313.3
3312.11
3310.66
3309.12
3307.58
3306.12
3304.68
3303.27
3301.96
3300.76
3299.63
3298.57
3297.59
3296.72
3295.93
3295.2
3294.49
3293.87
3293.29
3292.7
3292.3
3090.21
3288.58
3309.59
3317.12
3321.69
3324.78
3326.86
3328.09
3328.67
3328.77
3328.47
3327.84
3326.97
3325.91
3324.79
3323.67
3322.57
3321.48
3320.4
3319.37
3318.39
3317.44
3316.52
3315.64
3314.8
3314.01
3313.22
3312.45
3311.69
3310.99
3310.19
3309.6
3213.17
3319.93
3330.94
3334.86
3337.19
3338.72
3339.72
3340.25
3340.44
3340.36
3340.06
3339.57
3338.94
3338.2
3337.41
3336.61
3335.82
3335.01
3334.19
3333.38
3332.58
3331.79
3330.98
3330.19
3329.4
3328.62
3327.81
3327.01
3326.16
3325.37
3324.41
3323.73
3313.18
3344.98
3348.1
3349.14
3349.69
3349.97
3350.1
3350.08
3349.95
3349.72
3349.42
3349.04
3348.6
3348.12
3347.6
3347.06
3346.5
3345.91
3345.3
3344.66
3344.01
3343.33
3342.63
3341.9
3341.14
3340.37
3339.53
3338.71
3337.78
3336.93
3335.84
3335.08
6943.57
5054.18
3859.67
3402.35
3116.45
2924.11
2808.41
2752.34
2735.94
2737.99
2745.69
2753.96
2762.06
2770.55
2779.93
2791.07
2803.98
2818.05
2833.08
2848.5
2864.17
2880.02
2895.53
2911.02
2926.41
2941.5
2955.52
2969.51
2982.33
2996.11
3005.98
3025.67
6951.58
5027.02
3781.76
3298.39
3023.97
2859.47
2774.44
2740.99
2736.68
2744.58
2755.42
2765.86
2775.47
2784.74
2794.45
2805.79
2818.73
2832.49
2846.85
2861.74
2876.96
2892.28
2907.31
2922.35
2937.25
2951.89
2965.52
2979.1
2991.49
3004.85
3014.37
3033.41
6960.75
4950.09
3618.35
3138.1
2907.2
2791.37
2745.61
2737.4
2746.47
2761.01
2775.43
2787.89
2798.54
2808.19
2817.99
2829.13
2841.67
2854.71
2868.19
2882.29
2896.78
2911.34
2925.66
2939.98
2954.12
2968.03
2981.03
2993.94
3005.68
3018.38
3027.36
3045.42
6959.98
4770.69
3393.66
2975.78
2812.96
2750.06
2738.51
2749.59
2768.3
2787.31
2803.77
2816.98
2827.76
2837.2
2846.65
2857.18
2868.91
2881.05
2893.61
2906.76
2920.32
2933.97
2947.42
2960.86
2974.11
2987.17
2999.37
3011.5
3022.48
3034.4
3042.75
3059.68
6945.67
4457.33
3159.85
2850.25
2758.2
2739.4
2752.32
2775.46
2799.38
2820.24
2837.16
2850.17
2860.45
2869.27
2878
2887.61
2898.31
2909.42
2920.94
2933.06
2945.59
2958.23
2970.71
2983.19
2995.49
3007.63
3018.98
3030.27
3040.45
3051.55
3059.24
3075.01
6936.14
4044.27
2965.51
2774.36
2740.51
2752.88
2780.96
2810.39
2836.19
2857.06
2873.34
2885.52
2894.89
2902.81
2910.57
2919.08
2928.59
2938.57
2948.97
2959.99
2971.43
2983.01
2994.47
3005.95
3017.26
3028.46
3038.95
3049.38
3058.77
3069.04
3076.09
3090.69
6985.62
3614.22
2832.95
2743.52
2751.12
2783.07
2819.19
2850.91
2876.44
2896.15
2911.1
2922.01
2930.21
2936.98
2943.59
2950.89
2959.16
2967.92
2977.13
2986.98
2997.29
3007.77
3018.17
3028.62
3038.93
3049.18
3058.78
3068.37
3076.96
3086.43
3092.85
3106.32
7164.99
3248.48
2761.91
2747.8
2781.97
2824.64
2863.8
2895.16
2919.06
2936.86
2950.01
2959.33
2966.1
2971.55
2976.87
2982.86
2989.8
2997.27
3005.23
3013.84
3022.95
3032.3
3041.62
3051.01
3060.31
3069.6
3078.31
3087.04
3094.84
3103.52
3109.31
3121.69
7516.79
2984.63
2742.61
2778.33
2827.57
2874.52
2913.21
2942.44
2963.78
2979.14
2990.13
2997.58
3002.7
3006.65
3010.55
3015.12
3020.65
3026.75
3033.36
3040.67
3048.51
3056.66
3064.83
3073.15
3081.42
3089.72
3097.52
3105.39
3112.4
3120.27
3125.45
3136.74
7914.78
2822.32
2764.61
2828.93
2884.49
2930.9
2966.64
2992.44
3010.56
3023.11
3031.67
3037.04
3040.34
3042.64
3044.97
3048.01
3052.01
3056.64
3061.83
3067.73
3074.22
3081.07
3088.04
3095.2
3102.39
3109.68
3116.53
3123.51
3129.71
3136.76
3141.33
3151.52
7891.9
2750.03
2819.12
2894.92
2949.86
2992.08
3023.06
3044.62
3059.16
3068.7
3074.71
3077.89
3079.29
3079.84
3080.52
3081.91
3084.28
3087.32
3090.96
3095.36
3100.4
3105.87
3111.53
3117.46
3123.5
3129.69
3135.56
3141.58
3146.96
3153.14
3157.08
3166.12
6957.26
2757.64
2896.92
2970.73
3019.67
3055.25
3080.52
3097.55
3108.5
3115.16
3118.77
3119.91
3119.5
3118.38
3117.42
3117.15
3117.84
3119.2
3121.19
3123.98
3127.45
3131.42
3135.68
3140.27
3145.06
3150.08
3154.88
3159.88
3164.37
3169.62
3172.92
3180.73
5240.57
2830.46
2985.34
3048.35
3088.22
3116.31
3135.88
3148.69
3156.55
3160.83
3162.53
3162.1
3160.33
3157.89
3155.56
3153.82
3152.92
3152.63
3152.97
3154.08
3155.91
3158.27
3161
3164.14
3167.58
3171.31
3174.95
3178.82
3182.35
3186.57
3189.19
3195.64
3722.9
2937.02
3070.47
3119.62
3150.07
3171.22
3185.81
3195.18
3200.67
3203.33
3203.86
3202.63
3200.21
3197.16
3194.07
3191.38
3189.33
3187.73
3186.64
3186.22
3186.45
3187.2
3188.37
3189.97
3191.95
3194.26
3196.63
3199.24
3201.7
3204.76
3206.63
3211.53
2903.92
3042.98
3143.83
3180.08
3202.35
3217.75
3228.34
3235.05
3238.87
3240.53
3240.56
3239.19
3236.84
3233.92
3230.87
3228.03
3225.58
3223.38
3221.5
3220.09
3219.16
3218.64
3218.46
3218.67
3219.25
3220.14
3221.19
3222.46
3223.76
3225.5
3226.55
3229.65
2750.88
3132.29
3203.54
3229.18
3244.9
3255.76
3263.21
3267.89
3270.49
3271.54
3271.38
3270.2
3268.28
3265.9
3263.39
3260.97
3258.77
3256.69
3254.78
3253.14
3251.81
3250.72
3249.85
3249.23
3248.89
3248.76
3248.78
3248.93
3249.23
3249.75
3250.03
3251.33
2876.87
3203.45
3251.16
3268.44
3279.01
3286.31
3291.3
3294.4
3296.08
3296.7
3296.48
3295.55
3294.1
3292.32
3290.44
3288.59
3286.87
3285.22
3283.64
3282.23
3280.99
3279.89
3278.91
3278.07
3277.4
3276.85
3276.39
3275.99
3275.71
3275.51
3275.25
3275.42
3041.05
3259.49
3289.01
3299.74
3306.29
3310.78
3313.83
3315.68
3316.65
3316.93
3316.68
3315.97
3314.93
3313.66
3312.32
3311
3309.74
3308.5
3307.3
3306.19
3305.18
3304.23
3303.34
3302.52
3301.79
3301.12
3300.49
3299.88
3299.3
3298.8
3298.2
3297.91
3186.65
3303.74
3319.16
3324.76
3328.14
3330.41
3331.92
3332.79
3333.17
3333.19
3332.92
3332.39
3331.66
3330.82
3329.91
3329
3328.12
3327.23
3326.35
3325.5
3324.68
3323.89
3323.1
3322.34
3321.6
3320.88
3320.15
3319.43
3318.67
3317.99
3317.14
3316.61
3304.25
3338.85
3343.27
3344.83
3345.68
3346.2
3346.48
3346.56
3346.49
3346.29
3345.99
3345.6
3345.14
3344.62
3344.07
3343.49
3342.9
3342.29
3341.66
3341.01
3340.35
3339.67
3338.97
3338.25
3337.51
3336.75
3335.94
3335.14
3334.24
3333.42
3332.36
3331.65
5110.95
7324.01
5203.87
4211.89
3613.07
3214.58
2965.05
2826.14
2762.7
2739.01
2732.97
2733.59
2736.97
2742.18
2749.19
2758.51
2770.14
2783.51
2798.31
2813.95
2830.15
2846.75
2863.15
2879.64
2896.07
2912.24
2927.33
2942.37
2956.19
2971.01
2981.7
3002.85
5116.13
7292.02
5050.56
4002.3
3426.22
3080.08
2885.74
2787.59
2746.75
2734.71
2734.8
2739.27
2745.37
2752.46
2760.77
2771.1
2783.41
2797.01
2811.59
2826.99
2842.96
2859.16
2875.21
2891.32
2907.32
2923.07
2937.79
2952.43
2965.84
2980.22
2990.56
3011.06
5122.2
7198.81
4723.59
3677.05
3186.79
2929.54
2804.44
2751.57
2736.03
2737.41
2744.93
2753.86
2762.76
2771.6
2781.07
2792.15
2804.84
2818.33
2832.52
2847.49
2862.97
2878.6
2894.06
2909.54
2924.84
2939.91
2954.01
2968.01
2980.76
2994.48
3004.27
3023.77
5121.85
6964.26
4263.49
3343.68
2983.77
2820.22
2754.74
2737.09
2740.77
2752.29
2765.25
2777.13
2787.65
2797.39
2807.4
2818.6
2831.13
2844.22
2857.85
2872.16
2886.93
2901.81
2916.51
2931.19
2945.64
2959.89
2973.22
2986.43
2998.42
3011.35
3020.51
3038.85
5113.71
6491.72
3775.26
3076.94
2847.25
2760.33
2738.24
2744.06
2759.82
2777.29
2793.19
2806.44
2817.55
2827.45
2837.37
2848.18
2860.12
2872.54
2885.41
2898.89
2912.79
2926.8
2940.61
2954.38
2967.91
2981.26
2993.75
3006.12
3017.3
3029.4
3037.88
3055.02
5111.47
5758.83
3361.26
2897.92
2772.01
2739.75
2746.29
2766.31
2788.64
2808.89
2825.86
2839.36
2850.32
2859.85
2869.22
2879.31
2890.4
2901.93
2913.87
2926.41
2939.34
2952.36
2965.21
2978.01
2990.58
3003
3014.61
3026.12
3036.49
3047.76
3055.57
3071.52
5153.94
4890.16
3064.8
2795.13
2742.61
2746.49
2770.59
2798.35
2823.59
2844.56
2861.35
2874.34
2884.62
2893.39
2901.91
2911.06
2921.11
2931.61
2942.51
2953.99
2965.87
2977.86
2989.69
3001.49
3013.08
3024.54
3035.27
3045.92
3055.48
3065.92
3073.09
3087.88
5295.14
4092.96
2879.21
2749.08
2745.15
2771.62
2805.57
2836.77
2862.53
2882.87
2898.67
2910.58
2919.78
2927.49
2934.95
2942.97
2951.87
2961.22
2970.97
2981.31
2992.06
3002.96
3013.75
3024.53
3035.13
3045.64
3055.47
3065.27
3074.03
3083.66
3090.19
3103.86
5602.46
3494.52
2779.86
2743.27
2770.04
2809.62
2848.06
2879.8
2904.49
2923.25
2937.44
2947.83
2955.63
2962.04
2968.22
2974.96
2982.58
2990.68
2999.2
3008.32
3017.87
3027.63
3037.32
3047.05
3056.64
3066.18
3075.1
3084.05
3092.02
3100.85
3106.76
3119.34
6163.5
3102.09
2743.72
2766.54
2811.53
2857.39
2896.51
2926.69
2949.14
2965.6
2977.68
2986.18
2992.28
2997.13
3001.85
3007.17
3013.36
3020.09
3027.27
3035.07
3043.37
3051.91
3060.45
3069.08
3077.62
3086.19
3094.21
3102.27
3109.45
3117.48
3122.77
3134.27
7062.06
2871.66
2754.63
2812.43
2866.46
2913.31
2950.15
2977.18
2996.47
3010.08
3019.62
3025.9
3030.04
3033.12
3036.18
3039.89
3044.51
3049.72
3055.44
3061.82
3068.76
3075.99
3083.32
3090.79
3098.25
3105.78
3112.86
3120.03
3126.4
3133.62
3138.3
3148.7
7955.28
2761.94
2803.01
2877.19
2932.66
2976.12
3008.38
3031.08
3046.57
3056.93
3063.66
3067.5
3069.5
3070.62
3071.84
3073.76
3076.63
3080.15
3084.24
3089.06
3094.49
3100.3
3106.3
3112.52
3118.82
3125.26
3131.34
3137.57
3143.11
3149.46
3153.53
3162.79
7285.16
2750.66
2881.69
2956.58
3006.76
3043.49
3069.72
3087.48
3099.01
3106.13
3110.09
3111.54
3111.41
3110.56
3109.87
3109.88
3110.84
3112.49
3114.76
3117.82
3121.55
3125.77
3130.26
3135.08
3140.08
3145.3
3150.28
3155.46
3160.1
3165.51
3168.92
3176.94
5029.19
2824.06
2977.48
3041.36
3081.84
3110.41
3130.37
3143.5
3151.59
3156.05
3157.88
3157.54
3155.83
3153.44
3151.14
3149.43
3148.56
3148.31
3148.66
3149.8
3151.66
3154.06
3156.83
3160.01
3163.51
3167.29
3170.99
3174.93
3178.52
3182.81
3185.49
3192.05
3348.05
2942.34
3071.1
3119.67
3149.79
3170.76
3185.29
3194.67
3200.22
3202.97
3203.61
3202.51
3200.22
3197.29
3194.3
3191.68
3189.64
3188.02
3186.85
3186.33
3186.41
3187
3187.99
3189.41
3191.21
3193.33
3195.54
3198
3200.34
3203.25
3205.06
3209.77
2762.12
3057.67
3150.76
3185.28
3206.55
3221.31
3231.51
3238.03
3241.79
3243.52
3243.69
3242.53
3240.47
3237.86