/*--------------------------------*- C++ -*----------------------------------*\
| =========                 |                                                 |
| \\      /  F ield         | OpenFOAM: The Open Source CFD Toolbox           |
|  \\    /   O peration     | Version:  2.4.0                                 |
|   \\  /    A nd           | Web:      www.OpenFOAM.org                      |
|    \\/     M anipulation  |                                                 |
\*---------------------------------------------------------------------------*/
FoamFile
{
    version     2.0;
    format      ascii;
    class       volScalarField;
    location    "3000";
    object      he;
}
// * * * * * * * * * * * * * * * * * * * * * * * * * * * * * * * * * * * * * //

dimensions      [0 2 -2 0 0 0 0];

internalField   nonuniform List<scalar> 
38400
(
610077
663185
673160
679467
687430
696267
705140
713201
719146
722924
724713
725150
724899
724402
723892
723683
723817
724223
724896
725562
726340
727253
728202
729309
730632
731967
733305
734638
736206
737662
739346
741061
610242
663601
675170
683501
692752
702171
710671
717788
722954
726259
727974
728584
728511
728073
727535
727303
727390
727620
728091
728644
729330
730146
731037
732086
733333
734624
735940
737238
738749
740163
741796
743464
610488
664766
679739
690729
701136
710750
718621
724701
729068
731874
733435
734022
733949
733495
732947
732650
732624
732654
732916
733358
733942
734641
735447
736402
737539
738737
739994
741239
742668
744002
745555
747149
610634
667655
686925
700004
710825
720054
727166
732368
736025
738383
739690
740128
739993
739516
738988
738640
738511
738435
738461
738860
739350
739937
740639
741483
742501
743587
744750
745911
747250
748496
749937
751429
610590
673161
696158
710181
720709
729162
735458
739909
742977
744921
745983
746303
746119
745660
745154
744773
744585
744443
744412
744640
745043
745544
746135
746860
747748
748713
749763
750821
752046
753207
754533
755917
610571
681394
706505
720470
730244
737751
743250
747068
749638
751241
752099
752319
752118
751675
751185
750804
750573
750405
750327
750424
750726
751150
751661
752278
753032
753869
754799
755740
756842
757899
759098
760389
611254
691689
717282
730449
739227
745789
750547
753812
755966
757292
757971
758118
757897
757455
756995
756607
756357
756169
756061
756097
756285
756605
757044
757575
758224
758938
759746
760562
761541
762478
763570
764725
613628
703115
728062
739958
747682
753343
757434
760205
762015
763092
763625
763696
763441
763016
762557
762168
761902
761694
761567
761556
761685
761907
762220
762668
763233
763849
764549
765251
766110
766922
767899
768913
618570
715078
738593
749017
755692
760538
764002
766341
767826
768695
769093
769083
768809
768377
767913
767520
767230
767003
766846
766804
766869
767031
767268
767589
768039
768567
769170
769778
770524
771228
772089
772958
626563
727351
748761
757675
763349
767414
770306
772232
773437
774112
774383
774315
774018
773577
773119
772715
772399
772147
771954
771873
771889
771978
772154
772401
772741
773144
773640
774150
774795
775395
776151
776877
637424
739661
758439
765865
770551
773899
776259
777811
778773
779281
779458
779351
779038
778611
778167
777759
777440
777160
776947
776810
776782
776814
776916
777093
777356
777667
778052
778453
778977
779474
780129
780712
650305
751553
767323
773332
777115
779796
781680
782926
783671
784058
784174
784048
783759
783376
782966
782587
782279
782001
781777
781623
781545
781539
781577
781686
781881
782116
782417
782726
783156
783541
784103
784533
664664
762409
775119
779857
782837
784946
786431
787401
787981
788286
788365
788256
788019
787697
787348
787038
786761
786528
786313
786173
786082
786051
786066
786127
786261
786442
786676
786918
787265
787569
788043
788360
680787
771808
781706
785364
787652
789288
790437
791185
791645
791886
791946
791872
791695
791445
791188
790945
790736
790555
790389
790279
790211
790180
790199
790251
790353
790495
790695
790892
791182
791431
791830
792068
699107
779688
787159
789908
791641
792878
793745
794320
794681
794867
794929
794887
794765
794590
794415
794243
794110
793980
793883
793808
793784
793779
793811
793875
793981
794104
794282
794460
794713
794933
795277
795479
719368
786164
791622
793624
794901
795812
796458
796891
797164
797313
797372
797360
797283
797182
797072
796968
796895
796825
796781
796747
796762
796789
796840
796924
797037
797167
797327
797502
797731
797936
798239
798427
740419
791455
795258
796662
797560
798203
798665
798986
799188
799302
799367
799377
799342
799298
799241
799194
799169
799148
799147
799161
799199
799261
799326
799426
799552
799687
799846
800006
800224
800418
800698
800870
760875
795769
798217
799134
799723
800151
800464
800687
800837
800931
800992
801019
801021
801019
801007
801007
801020
801039
801075
801123
801181
801270
801355
801460
801595
801739
801899
802056
802260
802441
802702
802863
779598
799275
800630
801146
801484
801736
801930
802073
802174
802251
802312
802353
802384
802418
802441
802480
802527
802579
802642
802719
802792
802900
803006
803119
803257
803403
803564
803722
803914
804083
804329
804477
795884
802128
802593
802784
802916
803029
803123
803201
803263
803326
803386
803439
803496
803555
803610
803682
803749
803835
803915
804017
804109
804226
804347
804470
804608
804759
804917
805072
805257
805421
805652
805797
141017
313055
351771
375822
405675
438250
470482
499395
520534
533955
540440
542274
541794
540576
539371
539326
540529
542579
545476
548625
552283
556554
561090
566200
571967
577940
583884
590086
596481
603212
609080
618477
141679
314650
359341
390860
425232
459639
490250
515589
533894
545575
551754
554125
554214
553125
551760
551557
552495
553954
556033
558653
561898
565680
569835
574586
579950
585572
591217
597087
603157
609538
615140
624044
142664
319122
376469
417534
455722
490399
518413
539852
555147
565016
570549
572775
572790
571545
570087
569530
569975
570677
571963
573979
576672
579867
583484
587676
592449
597499
602658
608000
613556
619409
624597
632744
143230
330160
403228
451437
490540
523356
548340
566453
579157
587322
591903
593545
593258
591887
590377
589537
589502
589709
590376
591866
593986
596587
599615
603176
607282
611690
616262
620989
625952
631186
635892
643175
142993
351081
437199
488093
525573
555208
577053
592378
602883
609542
613206
614369
613868
612466
610946
609905
609535
609397
609673
610665
612265
614309
616761
619698
623147
626899
630856
634954
639310
643892
648104
654479
142827
382089
474752
524627
558907
584896
603738
616724
625426
630846
633748
634530
633897
632482
630956
629810
629205
628848
628835
629414
630581
632151
634078
636439
639277
642404
645757
649245
653011
656957
660692
666173
145529
420353
513270
559568
589932
612355
628478
639456
646681
651089
653352
653823
653067
651642
650121
648891
648137
647611
647394
647667
648446
649608
651098
652953
655238
657792
660582
663493
666710
670055
673317
677962
155137
462146
551180
592400
618769
637912
651610
660856
666825
670360
672086
672267
671394
669943
668395
667102
666221
665556
665169
665212
665682
666484
667580
669009
670821
672867
675150
677529
680234
683022
685830
689690
175098
505134
587639
623278
645822
662002
673508
681197
686067
688852
690087
689996
689014
687515
685928
684561
683557
682759
682211
682046
682251
682758
683516
684560
685951
687555
689387
691292
693528
695808
698209
701333
207177
548420
622381
652469
671397
684852
694357
700631
704508
706634
707440
707118
706033
704496
702879
701451
700328
699395
698686
698316
698277
698514
698972
699678
700694
701901
703325
704814
706619
708434
710459
712913
250344
591112
655034
679800
695306
706250
713924
718937
721959
723534
723996
723521
722392
720873
719274
717824
716626
715588
714737
714182
713915
713898
714075
714481
715164
716017
717071
718175
719591
720985
722646
724489
300574
631728
684715
704551
716923
725616
731680
735618
737942
739094
739334
738804
737733
736328
734841
733465
732280
731214
730296
729615
729180
728950
728891
729034
729425
729965
730690
731453
732515
733531
734862
736164
354736
668346
710528
726012
735656
742428
747140
750185
751965
752819
752952
752461
751540
750343
749068
747863
746806
745823
744953
744254
743757
743412
743208
743172
743342
743630
744088
744571
745335
746030
747077
747906
412916
699702
732164
743989
751356
756530
760133
762458
763822
764459
764551
764167
763428
762488
761480
760511
759656
758845
758117
757513
757062
756715
756486
756380
756432
756573
756864
757170
757715
758179
758983
759477
476200
725668
749927
758754
764259
768128
770832
772575
773603
774095
774164
773886
773349
772644
771893
771180
770531
769938
769384
768937
768586
768326
768147
768053
768085
768190
768402
768619
769034
769363
770006
770310
543724
746831
764376
770775
774765
777584
779548
780829
781590
781953
782026
781841
781458
780976
780451
779947
779511
779091
778721
778408
778191
778023
777916
777880
777935
778033
778215
778406
778746
779019
779537
779771
611672
763982
776098
780525
783298
785256
786638
787538
788072
788350
788415
788299
788066
787751
787405
787092
786805
786555
786323
786153
786022
785951
785916
785927
786008
786129
786310
786484
786778
787012
787444
787647
675657
777867
785603
788441
790220
791495
792390
792972
793347
793539
793598
793553
793427
793242
793062
792882
792741
792608
792501
792424
792390
792376
792407
792469
792567
792689
792867
793044
793297
793514
793863
794056
732481
789109
793311
794859
795850
796555
797057
797405
797626
797748
797811
797819
797772
797715
797648
797587
797552
797518
797511
797511
797548
797600
797665
797762
797887
798021
798181
798349
798567
798766
799048
799233
780627
798232
799568
800081
800414
800665
800854
800999
801101
801176
801237
801277
801310
801345
801369
801409
801455
801508
801574
801649
801729
801832
801936
802053
802193
802338
802499
802656
802849
803021
803265
803417
-229737
-39934.6
22306.2
62869.2
109241
161124
214736
265066
304092
330981
346979
355953
361774
366920
372519
379927
389073
399127
409987
421047
432390
444029
455503
467159
478999
490713
501808
512960
523580
534788
543638
558969
-229323
-38269.7
31275.9
81858.3
136064
192849
245891
291682
326450
350446
365594
374843
380878
385563
390321
396936
405229
414190
423695
433788
444366
455221
466065
477161
488435
499648
510326
521046
531254
542038
550555
565290
-228742
-33479.4
52411.1
117904
181104
241439
292173
332344
362177
382836
396320
404566
409632
413173
416846
422145
429032
436433
444398
453227
462709
472539
482477
492703
503121
513548
523550
533593
543154
553296
561304
575132
-228512
-21360.3
88074
168258
236929
296625
343230
377904
403057
420323
431530
438032
441691
444044
446621
450547
455936
461877
468540
475997
484257
492954
501854
511085
520533
530056
539247
548494
557306
566693
574110
586914
-228902
2871.25
138167
227975
296684
352070
393439
423040
443956
458075
467077
471993
474427
475739
477278
479943
483934
488556
493920
500172
507198
514733
522553
530744
539184
547769
556107
564515
572555
581136
587936
599669
-229272
42477.8
199459
291369
355695
404889
440775
465878
483184
494624
501718
505308
506720
507141
507746
509301
512049
515470
519629
524736
530581
536965
543697
550835
558276
565900
573381
580946
588215
596004
602189
612839
-227622
98263.9
266943
354186
411700
454308
485014
506181
520457
529665
535155
537624
538165
537821
537605
538196
539849
542177
545220
549188
553950
559228
564890
570986
577421
584106
590711
597445
603947
610955
616545
626133
-220962
167376
335938
414207
464240
500586
526591
544310
556003
563319
567444
568941
568741
567731
566793
566552
567244
568578
570589
573474
577146
581388
586027
591091
596538
602270
607999
613901
619641
625870
630872
639419
-206198
244740
403358
471033
513729
544340
566085
580727
590166
595846
598773
599430
598592
597011
595466
594490
594348
594781
595835
597700
600320
603514
607142
611232
615710
620492
625336
630389
635362
640798
645214
652713
-179669
325564
467937
524889
560601
585938
603792
615655
623102
627355
629264
629205
627851
625817
623780
622206
621343
620977
621167
622083
623703
625882
628503
631590
635109
638956
642936
647119
651311
655927
659747
666169
-135581
406186
528746
575404
604533
625022
639350
648741
654478
657546
658643
658066
656368
654057
651706
649708
648287
647276
646726
646805
647524
648748
650400
652505
655058
657956
661043
664345
667754
671523
674746
680028
-66161
483137
584111
621268
644366
660532
671780
679075
683424
685597
686143
685308
683511
681168
678748
676577
674838
673409
672324
671766
671734
672128
672928
674133
675774
677739
679942
682347
684958
687849
690470
694553
30194.4
552537
632243
661066
678937
691436
700114
705704
708981
710544
710794
709937
708290
706166
703932
701871
700111
698545
697232
696301
695780
695601
695735
696213
697081
698227
699633
701197
703048
705065
707093
709952
141277
611712
672467
694323
707877
717361
723952
728183
730654
731795
731932
731204
729841
728103
726263
724508
722964
721549
720276
719290
718584
718119
717894
717917
718249
718797
719584
720474
721683
722944
724438
726175
257542
660337
705310
721522
731586
738637
743544
746701
748542
749392
749487
748933
747899
746581
745174
743821
742617
741482
740457
739608
738969
738478
738163
738018
738098
738319
738740
739211
739977
740701
741780
742682
376321
699618
731881
743551
750821
755920
759473
761763
763113
763737
763818
763431
762696
761755
760748
759776
758914
758095
757349
756727
756252
755877
755626
755485
755507
755617
755883
756162
756684
757125
757912
758378
491936
731200
753328
761366
766387
769913
772382
773977
774923
775377
775443
775197
774716
774081
773415
772772
772196
771665
771169
770778
770473
770243
770097
770026
770068
770179
770392
770606
771004
771324
771931
772226
597932
756605
770652
775773
778987
781246
782833
783874
784491
784800
784872
784735
784451
784080
783676
783299
782968
782659
782389
782173
782017
781925
781871
781872
781961
782083
782274
782463
782783
783043
783514
783744
690083
777090
784663
787442
789185
790434
791313
791887
792252
792445
792503
792461
792340
792166
791991
791823
791686
791563
791460
791396
791368
791359
791403
791467
791570
791703
791887
792072
792331
792551
792905
793110
766898
793641
796008
796891
797466
797881
798182
798402
798548
798638
798699
798734
798731
798734
798733
798732
798754
798773
798816
798863
798931
799019
799105
799222
799358
799500
799662
799823
800026
800218
800474
800646
-392949
-214931
-148541
-103523
-56205.7
-3194.2
53442.3
109480
156713
192591
217364
234560
248073
260489
273053
287093
302509
318493
334884
351129
367248
383259
398716
414010
429147
443897
457692
471358
484156
497568
507985
526167
-392636
-213640
-141188
-87361.7
-32490
26146.5
84029.4
137373
181334
214646
238512
255760
269232
280964
292486
305544
319952
334729
349692
364867
380136
395298
410065
424744
439271
453480
466820
480038
492389
505363
515418
532977
-392232
-209896
-123858
-56390.4
8172.03
72591.2
130975
180810
220751
250909
272949
288910
301090
311331
321428
332885
345657
358685
371955
385724
399773
413808
427584
441333
454942
468320
480946
493452
505123
517429
526939
543568
-392168
-200532
-94342
-12017.3
60611.4
128011
185137
230996
266666
293282
312693
326479
336787
345377
353941
363670
374659
385987
397710
409975
422683
435491
448151
460836
473422
485853
497631
509307
520197
531726
540615
556179
-392658
-181962
-51902.9
43030.9
119999
186983
241021
282452
313719
336689
353309
364905
373397
380396
387433
395496
404760
414489
424709
435579
446931
458479
469983
481572
493101
504551
515437
526259
536343
547060
555302
569772
-393099
-151581
2510.49
105344
182666
246497
296103
332921
359956
379476
393432
402972
409765
415257
420818
427309
434956
443172
451949
461468
471507
481812
492155
502640
513123
523593
533585
543551
552839
562751
570354
583733
-391707
-107882
66878.8
172056
246442
305285
349754
381955
405029
421366
432831
440434
445603
449644
453777
458780
464904
471669
479040
487204
495975
505067
514256
523642
533089
542579
551675
560797
569304
578427
585407
597733
-386038
-50714.1
139081
241343
310401
363182
402196
429879
449245
462629
471749
477481
481076
483694
486428
490001
494657
499998
505992
512800
520271
528154
536206
544497
552891
561409
569605
577875
585607
593948
600322
611620
-374134
19769.2
217384
312291
374378
420477
453932
477218
493092
503703
510593
514515
516569
517776
519137
521297
524515
528442
533043
538481
544631
551253
558130
565308
572658
580165
587458
594850
601802
609352
615121
625381
-354383
104176
300008
384220
438156
477245
505155
524204
536802
544839
549651
551865
552451
552306
552327
553110
554900
557404
560598
564633
569415
574726
580366
586373
592621
599104
605443
611932
618075
624800
629959
639136
-323958
202278
384141
455541
500595
532630
555194
570301
579946
585720
588716
589458
588776
587443
586255
585749
586175
587283
589060
591675
595048
598989
603328
608091
613179
618548
623873
629406
634700
640544
645074
653092
-277416
308758
465322
523178
559308
584688
602401
614050
621226
625192
626808
626490
624926
622740
620642
619090
618334
618174
618626
619860
621834
624388
627384
630842
634694
638873
643134
647616
651996
656877
660750
667509
-204698
412866
538562
583652
611651
631204
644788
653606
658887
661578
662331
661473
659529
657003
654456
652294
650735
649620
649002
649047
649755
651001
652693
654851
657450
660406
663529
666889
670302
674135
677312
682676
-90221.1
505076
600846
634969
656111
670862
681102
687704
691578
693449
693780
692824
690967
688581
686102
683852
682006
680437
679205
678461
678239
678448
679036
680044
681483
683255
685269
687492
689925
692643
695101
698955
66547.8
581582
651932
677114
692713
703618
711196
716069
718914
720246
720421
719600
718079
716131
714073
712132
710453
708921
707594
706589
705941
705573
705498
705725
706308
707143
708233
709465
711006
712667
714435
716778
234505
643159
693180
711218
722414
730259
735715
739231
741284
742245
742358
741759
740645
739201
737669
736217
734916
733722
732634
731762
731110
730657
730374
730293
730468
730809
731351
731957
732872
733767
734980
736151
393416
692280
726333
738697
746390
751789
755557
757982
759417
760094
760188
759796
759042
758060
757028
756035
755152
754336
753581
752982
752524
752191
751977
751885
751965
752152
752488
752842
753442
753974
754829
755430
535178
731512
752990
760828
765730
769172
771587
773146
774077
774531
774609
774382
773934
773334
772706
772111
771577
771094
770647
770307
770055
769879
769786
769767
769860
770027
770286
770557
770991
771371
771990
772385
656132
762953
774474
778698
781352
783225
784545
785414
785934
786207
786281
786181
785970
785688
785379
785098
784853
784639
784448
784315
784221
784196
784199
784250
784374
784532
784748
784965
785286
785566
786009
786288
755698
788246
791822
793140
793992
794606
795044
795344
795545
795663
795723
795741
795718
795676
795643
795605
795596
795586
795603
795620
795683
795751
795838
795952
796088
796233
796404
796588
796815
797023
797304
797507
-509397
-318377
-248443
-200595
-152690
-99569.8
-42313.5
15413.1
65961.3
106136
135572
157368
175232
191751
208235
226006
244965
264321
283890
303146
322075
340691
358550
376074
393265
409926
425447
440733
454978
469823
481341
501375
-509105
-317192
-241705
-185549
-130396
-71756.1
-12722.9
43229.9
91230.3
129265
157922
179761
197550
213365
228781
245522
263418
281521
299636
317772
335791
353513
370638
387506
404048
420136
435178
449984
463755
478145
489279
508667
-508771
-313770
-225910
-156824
-92294.7
-27636.6
32898.4
86593.2
131457
166828
193883
214540
231072
245391
259325
274399
290598
306885
323241
339893
356630
373161
389236
405116
420698
435907
450196
464252
477311
490996
501556
519972
-508799
-305379
-199140
-115838
-43224.6
25307.8
85990.2
136990
178404
210670
235320
253907
268596
281228
293560
306841
321189
335703
350415
365519
380848
396088
410993
425760
440261
454480
467873
481074
493314
506187
516089
533400
-509321
-289006
-160851
-65159.2
12515.5
82195.2
141385
189107
226760
255677
277661
294089
306936
317923
328659
340208
352778
365634
378787
392422
406353
420291
433996
447623
461029
474226
486693
499000
510395
522432
531655
547833
-509668
-262616
-112031
-7750.34
71777.6
140326
196661
240652
274472
300078
319421
333757
344841
354250
363441
373361
384264
395566
407234
419465
432051
444722
457239
469735
482061
494244
505788
517209
527785
538989
547549
562604
-507865
-225136
-54414
54119.5
132889
198651
251179
291145
321178
343589
360366
372656
382014
389870
397555
405929
415268
425080
435321
446179
457466
468904
480256
491637
502902
514090
524720
535279
545046
555449
563365
577338
-501271
-176578
10497.4
119368
195459
257223
305280
341015
367298
386588
400828
411055
418665
424952
431133
437995
445813
454173
463012
472499
482484
492706
502908
513189
523413
533620
543338
553034
562010
571630
578918
591845
-487465
-117228
82174.3
188025
259972
316708
359744
391043
413550
429714
441382
449482
455277
459930
464563
469895
476193
483082
490502
498615
507269
516240
525271
534447
543626
552838
561654
570488
578674
587510
594184
606072
-464696
-46193
160947
260799
327118
377796
415276
441914
460572
473576
482616
488513
492403
495349
498363
502105
506828
512200
518151
524828
532110
539775
547587
555609
563707
571914
579788
587747
595137
603165
609231
620066
-431873
39183.8
247250
337959
396899
440470
471935
493759
508568
518437
524858
528539
530503
531687
533031
535118
538197
541967
546363
551530
557365
563647
570161
576963
583925
591051
597961
604985
611559
618745
624190
633930
-387377
142075
339560
417780
467548
503276
528584
545718
556888
563863
567877
569518
569686
569203
568911
569343
570747
572843
575602
579170
583454
588252
593382
598868
604607
610579
616445
622470
628175
634457
639261
647833
-326339
260675
432158
495538
535237
563208
582772
595725
603829
608457
610578
610660
609463
607655
605989
604951
604774
605242
606359
608275
610928
614144
617774
621840
626248
630965
635683
640611
645373
650660
654780
662061
-235681
381640
516979
565620
595846
616973
631668
641254
647038
650064
651023
650290
648425
645971
643529
641528
640190
639341
639032
639427
640504
642132
644217
646766
649745
653065
656533
660235
663948
668094
671474
677262
-87514.7
489172
589008
624905
647156
662697
673498
680489
684639
686671
687116
686214
684377
682016
679575
677377
675603
674134
673008
672400
672317
672663
673414
674577
676170
678097
680257
682630
685193
688055
690625
694670
116984
577134
647664
673261
689142
700254
707992
712989
715942
717357
717609
716868
715421
713564
711609
709783
708225
706829
705635
704766
704245
704000
704033
704354
705010
705906
707038
708296
709854
711509
713292
715588
315156
647069
694718
712161
723014
730633
735943
739382
741416
742400
742569
742066
741073
739776
738414
737135
736011
735007
734110
733430
732962
732682
732569
732637
732937
733391
734018
734701
735650
736579
737783
738960
486573
702519
732381
743396
750272
755104
758490
760683
761998
762638
762773
762476
761862
761068
760231
759438
758758
758138
757597
757183
756917
756751
756701
756769
756978
757274
757694
758143
758778
759375
760209
760910
629988
746682
762608
768521
772219
774842
776679
777881
778613
778982
779081
778951
778652
778258
777847
777456
777137
776844
776604
776425
776340
776304
776335
776432
776611
776835
777131
777448
777875
778273
778818
779271
746730
782039
786938
788775
789939
790782
791380
791780
792044
792197
792263
792267
792223
792146
792078
792014
791974
791950
791942
791963
792016
792078
792183
792305
792456
792622
792833
793044
793304
793547
793866
794116
-588454
-399821
-324610
-274393
-225818
-172370
-114334
-55206.4
-2462.28
40371.4
72628
97229.1
117819
136986
156089
176449
197917
219705
241617
263127
284193
304813
324546
343830
362663
380850
397782
414377
429827
445842
458298
479837
-588147
-398593
-318156
-259854
-204060
-145028
-84892.4
-27065.9
23527.8
64484.8
96082
120763
141276
159732
177747
197026
217383
237869
258285
278621
298725
318400
337360
355944
374089
391672
408093
424183
439130
454662
466712
487587
-587789
-395108
-303086
-232075
-166852
-101566
-39408.8
16802.9
64763
103384
133565
157164
176473
193433
209922
227474
246061
264659
283247
302023
320767
339186
357030
374570
391700
408358
423974
439282
453478
468269
479716
499576
-587809
-386779
-277589
-192380
-118890
-49300.2
13671.5
67866.4
112881
148712
176677
198324
215833
231097
245936
261630
278300
295048
311900
329057
346325
363386
379994
396356
412349
427963
442644
457043
470380
484321
495082
513790
-588290
-370911
-241123
-143279
-64413.4
6930.08
69174.8
120754
162453
195206
220661
240228
255925
269533
282738
296648
311483
326512
341735
357350
373159
388860
404209
419372
434214
448754
462462
475925
488380
501448
511499
529017
-588423
-345939
-194621
-87764.3
-6613.58
64370.1
124587
173039
211275
240927
263860
281395
295353
307377
319013
331261
344396
357826
371516
385671
400082
414464
428581
442568
456281
469764
482503
495044
506635
518842
528190
544546
-585934
-311035
-139915
-28256.1
52714.6
121871
179130
224095
258850
285467
305930
321474
333729
344205
354327
365015
376564
388483
400721
413468
426541
439658
452575
465411
478036
490484
502272
513915
524667
536040
544716
559955
-578052
-266102
-78855.3
33911.8
113051
179365
233006
274225
305480
329107
347115
360645
371174
380095
388720
397896
407926
418390
429218
440590
452347
464224
475974
487696
499253
510702
521564
532323
542262
552824
560855
575017
-562624
-211647
-12501.8
98553.4
174809
237459
286919
324130
351810
372411
387907
399340
408071
415376
422464
430125
438653
447667
457095
467105
477550
488181
498765
509379
519891
530345
540284
550185
559327
569101
576504
589616
-538573
-147995
59205.9
166462
238972
297076
341761
374642
398582
416036
428895
438104
444911
450495
455972
462061
469041
476569
484563
493176
502293
511658
521053
530545
539996
549464
558493
567519
575877
584862
591651
603733
-505069
-74170.3
137635
239163
306757
359194
398389
426545
446510
460654
470712
477539
482283
486013
489758
494177
499522
505474
511954
519116
526836
534882
543043
551373
559744
568183
576282
584430
591988
600181
606362
617401
-459998
13401.8
225136
318236
379005
424361
457328
480383
496189
506893
514046
518380
520945
522694
524580
527191
530771
535014
539858
545446
551662
558290
565130
572221
579439
586810
593921
601149
607884
615245
620810
630769
-399508
121558
322669
403279
454663
491680
517974
535858
547610
555037
559412
561365
561807
561595
561571
562280
563960
566342
569378
573219
577763
582811
588169
593880
599829
605998
612037
618238
624088
630534
635448
644226
-317352
252408
424185
488617
528972
557435
577388
590648
598985
603784
606037
606206
605072
603317
601690
600687
600547
601048
602187
604132
606825
610082
613757
617863
622328
627102
631890
636879
641706
647066
651250
658629
-191757
387214
517593
565670
595572
616527
631157
640751
646597
649712
650783
650168
648431
646099
643756
641819
640493
639622
639242
639532
640469
641938
643850
646221
649024
652173
655486
659034
662636
666645
669975
675575
16363.3
503725
595803
630019
651292
666208
676631
683429
687524
689618
690203
689509
687953
685899
683764
681851
680329
679058
678089
677559
677498
677805
678438
679440
680828
682505
684412
686480
688790
691304
693706
697213
249757
596969
658770
681978
696444
706615
713731
718384
721170
722596
722968
722455
721336
719856
718298
716882
715703
714675
713828
713261
712985
712949
713122
713529
714210
715077
716133
717260
718657
720074
721686
723555
447103
670518
709013
723594
732710
739135
743649
746602
748390
749299
749554
749247
748547
747628
746657
745765
745033
744384
743852
743485
743313
743281
743376
743622
744046
744577
745240
745931
746832
747699
748790
749867
608823
728735
749154
756944
761835
765293
767734
769345
770314
770840
771001
770861
770524
770061
769570
769138
768777
768477
768231
768091
768038
768077
768187
768371
768658
769011
769439
769881
770448
770986
771673
772316
739065
775122
781356
783767
785286
786382
787166
787691
788021
788226
788315
788313
788257
788165
788061
787993
787935
787914
787902
787937
788000
788092
788218
788364
788549
788762
789010
789260
789563
789845
790212
790519
-659352
-473304
-390390
-337357
-288331
-235014
-176610
-116467
-62106.5
-17346.6
16930
43585.5
66240.5
87500.2
108751
131290
154902
178787
202748
226247
249219
271632
293060
313941
334274
353853
372078
389880
406445
423525
436864
459790
-658965
-472014
-384007
-323220
-267067
-208016
-147159
-87911.8
-35374.7
7735.49
41480.5
68271.6
90861.7
111397
131528
152937
175384
197911
220329
242604
264553
285977
306581
326722
346327
365266
382952
400218
416259
432829
445745
467964
-658497
-468460
-369228
-296219
-230540
-164851
-101441
-43274.1
7043.26
48095.2
80594.8
106395
127812
146829
165381
184986
205583
226135
246640
267274
287792
307885
327310
346340
364873
382842
399679
416118
431363
447160
459444
480606
-658399
-460125
-344463
-257490
-183173
-112631
-47811.6
8866.18
56624.9
95133.4
125565
149481
169118
186418
203253
220915
239512
258129
276800
295731
314689
333346
351460
369248
386581
403444
419296
434781
449123
464034
475592
495559
-658680
-444254
-309223
-209308
-129088
-56231.5
8442.77
62969.5
107724
143350
171385
193278
211110
226725
241869
257675
274358
291180
308134
325437
342856
360084
376871
393391
409514
425244
440069
454566
467988
481980
492791
511528
-658267
-419123
-264225
-154600
-71602.4
1416.61
64599
116398
157948
190621
216217
236124
252221
266230
279760
293850
308771
323928
339288
355050
371008
386854
402346
417629
432568
447190
460992
474525
487037
500130
510215
527738
-654365
-384347
-211132
-96008.4
-12801.2
58898.2
119634
168308
206596
236359
259564
277519
291925
304378
316374
328863
342160
355769
369626
383929
398493
413020
427267
441356
455154
468705
481516
494114
505751
517977
527357
543721
-643873
-340651
-152070
-35324.4
46399.6
115839
173484
218760
253754
280658
301493
317489
330208
341114
351609
362582
374347
386482
398908
411813
425034
438292
451336
464275
476979
489494
501348
513039
523831
535229
543935
559197
-624624
-288489
-88777.7
26708.3
106004
172522
226583
268222
299870
323895
342327
356313
367287
376622
385610
395090
405368
416066
427097
438644
450554