/*--------------------------------*- C++ -*----------------------------------*\
| =========                 |                                                 |
| \\      /  F ield         | OpenFOAM: The Open Source CFD Toolbox           |
|  \\    /   O peration     | Version:  2.4.0                                 |
|   \\  /    A nd           | Web:      www.OpenFOAM.org                      |
|    \\/     M anipulation  |                                                 |
\*---------------------------------------------------------------------------*/
FoamFile
{
    version     2.0;
    format      ascii;
    class       volScalarField;
    location    "3000";
    object      mut;
}
// * * * * * * * * * * * * * * * * * * * * * * * * * * * * * * * * * * * * * //

dimensions      [1 -1 -1 0 0 0 0];

internalField   nonuniform List<scalar> 
38400
(
1.93746e-09
2.66633e-09
2.94171e-09
3.12696e-09
3.35087e-09
3.54764e-09
3.72539e-09
3.98089e-09
4.39567e-09
5.00987e-09
5.86321e-09
6.95553e-09
8.28844e-09
9.87196e-09
1.17426e-08
1.39048e-08
1.63896e-08
1.94656e-08
2.29526e-08
2.70407e-08
3.18021e-08
3.73371e-08
4.38737e-08
5.20304e-08
6.16469e-08
7.22136e-08
8.28913e-08
9.56499e-08
1.07101e-07
1.23912e-07
1.32732e-07
1.6731e-07
1.93345e-09
2.65638e-09
2.89579e-09
3.02609e-09
3.21332e-09
3.39123e-09
3.58843e-09
3.88997e-09
4.34033e-09
4.97419e-09
5.81444e-09
6.86328e-09
8.13733e-09
9.66418e-09
1.14752e-08
1.35558e-08
1.5947e-08
1.88645e-08
2.2316e-08
2.62524e-08
3.0813e-08
3.61258e-08
4.23334e-08
4.99581e-08
5.9051e-08
6.91872e-08
7.92907e-08
9.13586e-08
1.02091e-07
1.17903e-07
1.26067e-07
1.58531e-07
1.92663e-09
2.63192e-09
2.79058e-09
2.84606e-09
2.99777e-09
3.16796e-09
3.3863e-09
3.72283e-09
4.19117e-09
4.81861e-09
5.62433e-09
6.61917e-09
7.8255e-09
9.27117e-09
1.09732e-08
1.29319e-08
1.51828e-08
1.78341e-08
2.11708e-08
2.48527e-08
2.9085e-08
3.40065e-08
3.96927e-08
4.65308e-08
5.46843e-08
6.41728e-08
7.35085e-08
8.45897e-08
9.43184e-08
1.08677e-07
1.15888e-07
1.45177e-07
1.91974e-09
2.57412e-09
2.62503e-09
2.61671e-09
2.749e-09
2.92292e-09
3.15297e-09
3.4992e-09
3.95946e-09
4.55884e-09
5.31666e-09
6.24904e-09
7.37384e-09
8.71105e-09
1.02751e-08
1.20785e-08
1.41526e-08
1.6583e-08
1.90738e-08
2.29631e-08
2.67907e-08
3.12267e-08
3.62986e-08
4.2275e-08
4.92641e-08
5.78581e-08
6.63981e-08
7.63966e-08
8.50487e-08
9.78915e-08
1.041e-07
1.2982e-07
1.91436e-09
2.46147e-09
2.41606e-09
2.36684e-09
2.48887e-09
2.66719e-09
2.8971e-09
3.23241e-09
3.66686e-09
4.2226e-09
4.91974e-09
5.77241e-09
6.79537e-09
8.00455e-09
9.41298e-09
1.1038e-08
1.29088e-08
1.50907e-08
1.75706e-08
2.07362e-08
2.41404e-08
2.80504e-08
3.24853e-08
3.76315e-08
4.34627e-08
5.07518e-08
5.84733e-08
6.75042e-08
7.51029e-08
8.6463e-08
9.17552e-08
1.1411e-07
1.90754e-09
2.28993e-09
2.18562e-09
2.10934e-09
2.22287e-09
2.39979e-09
2.61864e-09
2.92865e-09
3.32374e-09
3.82487e-09
4.45129e-09
5.21324e-09
6.12411e-09
7.19608e-09
8.44088e-09
9.87768e-09
1.1531e-08
1.3455e-08
1.56622e-08
1.82209e-08
2.13103e-08
2.47095e-08
2.85243e-08
3.29094e-08
3.77529e-08
4.36505e-08
5.01196e-08
5.82655e-08
6.49949e-08
7.49756e-08
7.94315e-08
9.88208e-08
1.88882e-09
2.07952e-09
1.9438e-09
1.8474e-09
1.95263e-09
2.1214e-09
2.32009e-09
2.59604e-09
2.94421e-09
3.38481e-09
3.93505e-09
4.60253e-09
5.39827e-09
6.33167e-09
7.4142e-09
8.66219e-09
1.00978e-08
1.1765e-08
1.3678e-08
1.58545e-08
1.83484e-08
2.13517e-08
2.46146e-08
2.8312e-08
3.23319e-08
3.71063e-08
4.21739e-08
4.89026e-08
5.48449e-08
6.37411e-08
6.75061e-08
8.41901e-08
1.8422e-09
1.85497e-09
1.69329e-09
1.58471e-09
1.68135e-09
1.83478e-09
2.0073e-09
2.24456e-09
2.54295e-09
2.92081e-09
3.39393e-09
3.96694e-09
4.64908e-09
5.44852e-09
6.37416e-09
7.44042e-09
8.6666e-09
1.00876e-08
1.17183e-08
1.35716e-08
1.56579e-08
1.80513e-08
2.08079e-08
2.39572e-08
2.72834e-08
3.11756e-08
3.51723e-08
4.03637e-08
4.49956e-08
5.26642e-08
5.5932e-08
7.04139e-08
1.75221e-09
1.62282e-09
1.43751e-09
1.32383e-09
1.41071e-09
1.54332e-09
1.68638e-09
1.88391e-09
2.13204e-09
2.44803e-09
2.84517e-09
3.32612e-09
3.89916e-09
4.57044e-09
5.34734e-09
6.24263e-09
7.27129e-09
8.46281e-09
9.82882e-09
1.1383e-08
1.31293e-08
1.51093e-08
1.73077e-08
1.98284e-08
2.25952e-08
2.58022e-08
2.89981e-08
3.30686e-08
3.65297e-08
4.23343e-08
4.48169e-08
5.72951e-08
1.60919e-09
1.37909e-09
1.17949e-09
1.06718e-09
1.1427e-09
1.25127e-09
1.36472e-09
1.52323e-09
1.72308e-09
1.97938e-09
2.30311e-09
2.69599e-09
3.16483e-09
3.71449e-09
4.35169e-09
5.08643e-09
5.93122e-09
6.90996e-09
8.03194e-09
9.30967e-09
1.07462e-08
1.23735e-08
1.41705e-08
1.61995e-08
1.83615e-08
2.08937e-08
2.34521e-08
2.67124e-08
2.9384e-08
3.37834e-08
3.54978e-08
4.48152e-08
1.41728e-09
1.12227e-09
9.23216e-10
8.20101e-10
8.82876e-10
9.67406e-10
1.05328e-09
1.17551e-09
1.33031e-09
1.53033e-09
1.78468e-09
2.0941e-09
2.4643e-09
2.89954e-09
3.4053e-09
3.98962e-09
4.66321e-09
5.44436e-09
6.34184e-09
7.36458e-09
8.51697e-09
9.82417e-09
1.12674e-08
1.28982e-08
1.46209e-08
1.66218e-08
1.85947e-08
2.11179e-08
2.31557e-08
2.65621e-08
2.78106e-08
3.46462e-08
1.19458e-09
8.56884e-10
6.78475e-10
5.92609e-10
6.42222e-10
7.04753e-10
7.66853e-10
8.56925e-10
9.71255e-10
1.12022e-09
1.31078e-09
1.54321e-09
1.82234e-09
2.15162e-09
2.5354e-09
2.98048e-09
3.49517e-09
4.09395e-09
4.78394e-09
5.57296e-09
6.46352e-09
7.47749e-09
8.59853e-09
9.86935e-09
1.12123e-08
1.27762e-08
1.43057e-08
1.62644e-08
1.78081e-08
2.04281e-08
2.12909e-08
2.64366e-08
9.46579e-10
5.98768e-10
4.59429e-10
3.95696e-10
4.32231e-10
4.7595e-10
5.18687e-10
5.81455e-10
6.61291e-10
7.66061e-10
9.00726e-10
1.06549e-09
1.26417e-09
1.49929e-09
1.77435e-09
2.09479e-09
2.46652e-09
2.90105e-09
3.40331e-09
3.98037e-09
4.63377e-09
5.38096e-09
6.20985e-09
7.15333e-09
8.15218e-09
9.32253e-09
1.04652e-08
1.19411e-08
1.309e-08
1.50753e-08
1.5678e-08
1.95673e-08
6.69191e-10
3.71608e-10
2.78466e-10
2.37039e-10
2.61289e-10
2.89482e-10
3.1682e-10
3.5729e-10
4.08937e-10
4.77101e-10
5.65232e-10
6.73606e-10
8.04907e-10
9.6096e-10
1.1445e-09
1.35914e-09
1.60938e-09
1.90306e-09
2.24399e-09
2.63741e-09
3.08486e-09
3.5985e-09
4.1708e-09
4.82556e-09
5.52022e-09
6.34001e-09
7.14015e-09
8.18502e-09
8.99085e-09
1.0413e-08
1.08166e-08
1.3628e-08
3.93347e-10
1.96396e-10
1.44325e-10
1.21478e-10
1.35286e-10
1.51161e-10
1.66565e-10
1.89519e-10
2.18985e-10
2.58195e-10
3.09372e-10
3.72847e-10
4.50412e-10
5.43376e-10
6.5358e-10
7.83388e-10
9.35848e-10
1.11584e-09
1.32618e-09
1.57015e-09
1.8493e-09
2.17139e-09
2.53179e-09
2.94668e-09
3.38829e-09
3.91283e-09
4.42511e-09
5.10175e-09
5.61927e-09
6.55251e-09
6.79996e-09
8.66733e-09
1.78896e-10
8.33072e-11
6.01079e-11
5.00218e-11
5.62973e-11
6.35119e-11
7.05564e-11
8.11316e-11
9.48258e-11
1.13265e-10
1.37661e-10
1.6833e-10
2.06321e-10
2.52495e-10
3.07932e-10
3.74072e-10
4.52692e-10
5.4656e-10
6.57438e-10
7.87333e-10
9.3736e-10
1.11206e-09
1.30897e-09
1.5376e-09
1.78245e-09
2.07579e-09
2.36289e-09
2.74663e-09
3.0386e-09
3.57581e-09
3.70984e-09
4.79933e-09
5.83276e-11
2.61738e-11
1.85694e-11
1.52937e-11
1.73748e-11
1.97761e-11
2.21376e-11
2.57117e-11
3.03868e-11
3.6765e-11
4.53312e-11
5.62711e-11
7.00491e-11
8.70822e-11
1.07874e-10
1.33101e-10
1.63585e-10
2.00572e-10
2.44952e-10
2.97763e-10
3.59624e-10
4.32728e-10
5.16186e-10
6.14388e-10
7.20776e-10
8.49861e-10
9.77239e-10
1.14978e-09
1.28135e-09
1.52817e-09
1.58724e-09
2.09742e-09
1.20962e-11
5.32681e-12
3.72817e-12
3.04493e-12
3.48423e-12
3.9916e-12
4.49273e-12
5.25649e-12
6.26388e-12
7.65339e-12
9.54234e-12
1.19867e-11
1.51099e-11
1.90276e-11
2.38825e-11
2.98658e-11
3.72071e-11
4.62582e-11
5.72891e-11
7.06302e-11
8.64986e-11
1.05556e-10
1.27645e-10
1.54029e-10
1.83027e-10
2.18761e-10
2.54433e-10
3.03575e-10
3.41266e-10
4.13524e-10
4.30259e-10
5.8361e-10
1.18264e-12
5.18136e-13
3.59139e-13
2.91551e-13
3.35396e-13
3.86038e-13
4.36189e-13
5.13021e-13
6.14988e-13
7.56795e-13
9.51348e-13
1.20565e-12
1.53424e-12
1.95118e-12
2.47415e-12
3.12697e-12
3.93822e-12
4.95215e-12
6.2046e-12
7.74118e-12
9.59447e-12
1.18535e-11
1.45097e-11
1.77299e-11
2.13179e-11
2.581e-11
3.03494e-11
3.67125e-11
4.16292e-11
5.12665e-11
5.34385e-11
7.45072e-11
1.21953e-14
5.35635e-15
3.68053e-15
2.97212e-15
3.43587e-15
3.97284e-15
4.50659e-15
5.32809e-15
6.42519e-15
7.96336e-15
1.00933e-14
1.29067e-14
1.65845e-14
2.13084e-14
2.7311e-14
3.49086e-14
4.44842e-14
5.66359e-14
7.18798e-14
9.08936e-14
1.14216e-13
1.43136e-13
1.77757e-13
2.20502e-13
2.68991e-13
3.30887e-13
3.94548e-13
4.85643e-13
5.57119e-13
7.00571e-13
7.32819e-13
1.05945e-12
4.75583e-07
5.33405e-07
5.59962e-07
5.7859e-07
5.78721e-07
5.71526e-07
5.63369e-07
5.69255e-07
6.03846e-07
6.69526e-07
7.703e-07
9.04257e-07
1.06889e-06
1.2629e-06
1.48842e-06
1.74189e-06
2.02373e-06
2.43213e-06
2.86039e-06
3.32692e-06
3.84858e-06
4.42534e-06
5.06222e-06
5.7686e-06
6.52608e-06
7.34904e-06
8.14376e-06
9.03227e-06
9.81158e-06
1.09689e-05
1.1563e-05
1.40258e-05
4.73167e-07
5.29201e-07
5.41518e-07
5.41698e-07
5.32669e-07
5.23579e-07
5.22998e-07
5.40673e-07
5.83047e-07
6.52332e-07
7.50169e-07
8.75641e-07
1.02931e-06
1.21293e-06
1.428e-06
1.66823e-06
1.93604e-06
2.29722e-06
2.73681e-06
3.18261e-06
3.67851e-06
4.23014e-06
4.83539e-06
5.50295e-06
6.21978e-06
7.00845e-06
7.76899e-06
8.61075e-06
9.33023e-06
1.039e-05
1.09293e-05
1.3196e-05
4.6937e-07
5.18356e-07
5.01638e-07
4.81086e-07
4.6707e-07
4.61126e-07
4.69092e-07
4.96354e-07
5.43475e-07
6.12313e-07
7.04221e-07
8.20325e-07
9.62295e-07
1.13226e-06
1.33002e-06
1.55181e-06
1.79999e-06
2.0902e-06
2.5322e-06
2.94826e-06
3.40335e-06
3.911e-06
4.46631e-06
5.07649e-06
5.72883e-06
6.46049e-06
7.17284e-06
7.96432e-06
8.6181e-06
9.54671e-06
1.00084e-05
1.19755e-05
4.66441e-07
4.92901e-07
4.44435e-07
4.12544e-07
4.00438e-07
4.00736e-07
4.14761e-07
4.46333e-07
4.93845e-07
5.59151e-07
6.44009e-07
7.50452e-07
8.79766e-07
1.0333e-06
1.21069e-06
1.41096e-06
1.63568e-06
1.89512e-06
2.08004e-06
2.65702e-06
3.06471e-06
3.5194e-06
4.01626e-06
4.56146e-06
5.13929e-06
5.79642e-06
6.44751e-06
7.18394e-06
7.78805e-06
8.62287e-06
9.01534e-06
1.06518e-05
4.65559e-07
4.47336e-07
3.80259e-07
3.47569e-07
3.40134e-07
3.46123e-07
3.63387e-07
3.95445e-07
4.40576e-07
5.00462e-07
5.77028e-07
6.72183e-07
7.86978e-07
9.22493e-07
1.07869e-06
1.25571e-06
1.45515e-06
1.68378e-06
1.93165e-06
2.33271e-06
2.69849e-06
3.09686e-06
3.53241e-06
4.01158e-06
4.5154e-06
5.08729e-06
5.66583e-06
6.33669e-06
6.88754e-06
7.66096e-06
8.01136e-06
9.39634e-06
4.642e-07
3.86109e-07
3.18863e-07
2.89906e-07
2.8675e-07
2.96448e-07
3.14644e-07
3.44806e-07
3.85689e-07
4.38908e-07
5.06366e-07
5.89497e-07
6.89325e-07
8.06673e-07
9.41808e-07
1.0955e-06
1.26908e-06
1.46788e-06
1.69138e-06
1.95785e-06
2.32147e-06
2.6727e-06
3.04809e-06
3.46211e-06
3.89693e-06
4.38683e-06
4.88229e-06
5.47703e-06
5.97061e-06
6.67482e-06
6.98731e-06
8.23877e-06
4.54253e-07
3.20959e-07
2.63741e-07
2.39131e-07
2.39123e-07
2.5059e-07
2.68036e-07
2.94984e-07
3.30699e-07
3.76759e-07
4.34874e-07
5.06125e-07
5.91376e-07
6.91355e-07
8.06506e-07
9.37654e-07
1.08627e-06
1.25633e-06
1.44836e-06
1.66305e-06
1.91573e-06
2.2522e-06
2.58359e-06
2.93678e-06
3.30649e-06
3.7232e-06
4.13971e-06
4.64515e-06
5.07431e-06
5.70429e-06
5.97919e-06
7.10794e-06
4.25079e-07
2.61408e-07
2.1479e-07
1.94233e-07
1.96287e-07
2.07942e-07
2.23557e-07
2.4671e-07
2.76967e-07
3.15836e-07
3.64878e-07
4.24798e-07
4.96378e-07
5.80234e-07
6.76804e-07
7.86983e-07
9.12107e-07
1.05539e-06
1.21755e-06
1.39868e-06
1.59965e-06
1.83365e-06
2.12219e-06
2.44382e-06
2.75831e-06
3.10864e-06
3.45622e-06
3.87766e-06
4.23295e-06
4.77351e-06
5.01061e-06
6.01187e-06
3.71714e-07
2.09522e-07
1.71319e-07
1.54273e-07
1.57502e-07
1.68209e-07
1.81412e-07
2.0059e-07
2.25497e-07
2.575e-07
2.97938e-07
3.47295e-07
4.06263e-07
4.75342e-07
5.54955e-07
6.45969e-07
7.49516e-07
8.68255e-07
1.00293e-06
1.15387e-06
1.32095e-06
1.50782e-06
1.7157e-06
1.95911e-06
2.23805e-06
2.54474e-06
2.83547e-06
3.18465e-06
3.47462e-06
3.91881e-06
4.1102e-06
4.96659e-06
2.99447e-07
1.6382e-07
1.32584e-07
1.18573e-07
1.22262e-07
1.31374e-07
1.41996e-07
1.5733e-07
1.7717e-07
2.02763e-07
2.35203e-07
2.74834e-07
3.22244e-07
3.77866e-07
4.42101e-07
5.1574e-07
5.9972e-07
6.96232e-07
8.05958e-07
9.29375e-07
1.06638e-06
1.21958e-06
1.38667e-06
1.57322e-06
1.77361e-06
2.00942e-06
2.25492e-06
2.55474e-06
2.79639e-06
3.15983e-06
3.31082e-06
4.00268e-06
2.22499e-07
1.2314e-07
9.80932e-08
8.69813e-08
9.06012e-08
9.78846e-08
1.06035e-07
1.17813e-07
1.33026e-07
1.52749e-07
1.77855e-07
2.08597e-07
2.45484e-07
2.8889e-07
3.39203e-07
3.97111e-07
4.63411e-07
5.39876e-07
6.27113e-07
7.25632e-07
8.35436e-07
9.58661e-07
1.09326e-06
1.243e-06
1.39999e-06
1.57961e-06
1.75864e-06
1.98378e-06
2.17282e-06
2.46949e-06
2.59737e-06
3.15615e-06
1.55093e-07
8.70571e-08
6.81398e-08
5.99432e-08
6.31263e-08
6.86145e-08
7.4565e-08
8.31818e-08
9.42963e-08
1.08775e-07
1.27298e-07
1.50051e-07
1.77473e-07
2.0989e-07
2.47665e-07
2.91386e-07
3.41738e-07
4.00119e-07
4.67096e-07
5.43155e-07
6.28394e-07
7.24541e-07
8.3004e-07
9.4798e-07
1.07173e-06
1.21306e-06
1.35162e-06
1.52395e-06
1.66361e-06
1.8876e-06
1.97544e-06
2.40734e-06
1.01152e-07
5.63656e-08
4.35172e-08
3.8047e-08
4.0541e-08
4.43953e-08
4.84793e-08
5.43924e-08
6.201e-08
7.19749e-08
8.47949e-08
1.00603e-07
1.19758e-07
1.42533e-07
1.69247e-07
2.00375e-07
2.36505e-07
2.78691e-07
3.27458e-07
3.8325e-07
4.46278e-07
5.17874e-07
5.96985e-07
6.8611e-07
7.80145e-07
8.88238e-07
9.9439e-07
1.12692e-06
1.23345e-06
1.40542e-06
1.46865e-06
1.79739e-06
5.90262e-08
3.24572e-08
2.4823e-08
2.15847e-08
2.32816e-08
2.5721e-08
2.82707e-08
3.19589e-08
3.67159e-08
4.29667e-08
5.10644e-08
6.11103e-08
7.33573e-08
8.80267e-08
1.05369e-07
1.25737e-07
1.49582e-07
1.77663e-07
2.1041e-07
2.48228e-07
2.91347e-07
3.40775e-07
3.95933e-07
4.58658e-07
5.25402e-07
6.02895e-07
6.79569e-07
7.76287e-07
8.54272e-07
9.8162e-07
1.02768e-06
1.27357e-06
2.91669e-08
1.60373e-08
1.215e-08
1.04926e-08
1.14556e-08
1.27744e-08
1.41418e-08
1.61249e-08
1.86909e-08
2.20916e-08
2.65319e-08
3.20883e-08
3.89275e-08
4.71905e-08
5.70545e-08
6.87612e-08
8.25938e-08
9.9064e-08
1.18446e-07
1.41086e-07
1.67145e-07
1.97369e-07
2.3143e-07
2.70598e-07
3.12726e-07
3.62253e-07
4.11679e-07
4.74852e-07
5.26141e-07
6.11186e-07
6.41824e-07
8.09462e-07
1.169e-08
6.49547e-09
4.85913e-09
4.15714e-09
4.59167e-09
5.16493e-09
5.75431e-09
6.61573e-09
7.73594e-09
9.23382e-09
1.12114e-08
1.37092e-08
1.68145e-08
2.0609e-08
2.51866e-08
3.0677e-08
3.72422e-08
4.51348e-08
5.45329e-08
6.56192e-08
7.8535e-08
9.36692e-08
1.10903e-07
1.30965e-07
1.52749e-07
1.78671e-07
2.04744e-07
2.38589e-07
2.66149e-07
3.12815e-07
3.29254e-07
4.23332e-07
3.6171e-09
2.01538e-09
1.4844e-09
1.25573e-09
1.40218e-09
1.58859e-09
1.77878e-09
2.05925e-09
2.42583e-09
2.92122e-09
3.58128e-09
4.42243e-09
5.4792e-09
6.7824e-09
8.37006e-09
1.02952e-08
1.2618e-08
1.54407e-08
1.88308e-08
2.28736e-08
2.76213e-08
3.32441e-08
3.97019e-08
4.72913e-08
5.5597e-08
6.56011e-08
7.57035e-08
8.90204e-08
9.98158e-08
1.18577e-07
1.2484e-07
1.63398e-07
7.56852e-10
4.08932e-10
2.96219e-10
2.4764e-10
2.79039e-10
3.17551e-10
3.56338e-10
4.14138e-10
4.89983e-10
5.9311e-10
7.31411e-10
9.08609e-10
1.13236e-09
1.40961e-09
1.74949e-09
2.16324e-09
2.66526e-09
3.27754e-09
4.01617e-09
4.90008e-09
5.94249e-09
7.18023e-09
8.60637e-09
1.029e-08
1.21325e-08
1.43665e-08
1.6614e-08
1.96181e-08
2.20078e-08
2.62949e-08
2.75778e-08
3.64694e-08
7.69814e-11
3.95045e-11
2.82095e-11
2.33357e-11
2.64966e-11
3.02364e-11
3.39552e-11
3.9554e-11
4.69032e-11
5.69457e-11
7.04775e-11
8.78486e-11
1.09836e-10
1.37163e-10
1.70713e-10
2.11644e-10
2.61391e-10
3.22108e-10
3.95409e-10
4.83131e-10
5.86554e-10
7.09408e-10
8.50551e-10
1.0174e-09
1.19927e-09
1.42054e-09
1.64069e-09
1.93862e-09
2.16906e-09
2.59695e-09
2.70645e-09
3.59553e-09
7.91823e-13
3.85114e-13
2.72823e-13
2.24209e-13
2.56038e-13
2.92747e-13
3.28902e-13
3.83663e-13
4.55518e-13
5.54041e-13
6.87092e-13
8.58017e-13
1.07471e-12
1.34428e-12
1.67546e-12
2.08002e-12
2.57183e-12
3.17241e-12
3.89704e-12
4.76451e-12
5.78544e-12
6.9986e-12
8.38941e-12
1.00327e-11
1.18186e-11
1.39968e-11
1.61457e-11
1.90794e-11
2.12983e-11
2.55296e-11
2.64735e-11
3.52754e-11
1.91975e-05
1.73287e-05
1.59704e-05
1.52795e-05
1.35819e-05
1.17984e-05
1.02943e-05
9.35177e-06
9.20868e-06
9.72947e-06
1.08915e-05
1.26046e-05
1.47733e-05
1.73295e-05
2.02598e-05
2.34218e-05
2.67727e-05
3.0443e-05
3.42649e-05
3.84109e-05
4.27568e-05
4.72296e-05
5.18663e-05
5.65526e-05
6.10921e-05
6.58037e-05
7.0385e-05
7.52173e-05
7.92746e-05
8.43971e-05
8.72009e-05
9.61013e-05
1.91155e-05
1.71412e-05
1.51429e-05
1.36993e-05
1.17436e-05
1.00556e-05
8.95342e-06
8.45209e-06
8.56301e-06
9.19842e-06
1.03182e-05
1.18739e-05
1.38435e-05
1.62279e-05
1.9007e-05
2.19955e-05
2.51884e-05
2.87482e-05
3.25857e-05
3.66379e-05
4.08659e-05
4.5261e-05
4.97809e-05
5.43472e-05
5.87941e-05
6.34008e-05
6.78469e-05
7.25682e-05
7.65299e-05
8.15491e-05
8.42713e-05
9.29909e-05
1.89897e-05
1.66395e-05
1.3359e-05
1.11634e-05
9.26481e-06
7.96427e-06
7.33006e-06
7.21806e-06
7.52728e-06
8.21131e-06
9.25039e-06
1.06526e-05
1.24279e-05
1.45941e-05
1.71098e-05
1.98605e-05
2.28358e-05
2.61853e-05
2.99024e-05
3.37584e-05
3.77775e-05
4.1986e-05
4.63071e-05
5.06926e-05
5.49834e-05
5.94337e-05
6.37025e-05
6.82686e-05
7.20869e-05
7.69538e-05
7.95525e-05
8.79885e-05
1.89012e-05
1.54369e-05
1.0838e-05
8.47655e-06
7.01066e-06
6.19893e-06
5.91532e-06
6.02533e-06
6.42509e-06
7.09777e-06
8.04582e-06
9.30204e-06
1.08752e-05
1.2779e-05
1.49845e-05
1.74396e-05
2.01373e-05
2.31916e-05
2.64404e-05
3.01924e-05
3.39397e-05
3.78886e-05
4.1955e-05
4.61152e-05
5.02065e-05
5.44623e-05
5.85314e-05
6.29218e-05
6.6577e-05
7.12702e-05
7.37299e-05
8.18279e-05
1.88936e-05
1.32593e-05
8.16242e-06
6.22997e-06
5.27949e-06
4.85385e-06
4.78475e-06
4.99533e-06
5.41462e-06
6.03728e-06
6.87726e-06
7.96629e-06
9.31567e-06
1.09373e-05
1.28195e-05
1.49439e-05
1.73121e-05
2.00075e-05
2.2981e-05
2.62838e-05
2.97147e-05
3.33499e-05
3.71181e-05
4.10094e-05
4.4857e-05
4.88836e-05
5.27344e-05
5.69276e-05
6.0408e-05
6.49177e-05
6.72364e-05
7.49723e-05
1.88739e-05
1.03364e-05
5.89026e-06
4.5663e-06
4.00938e-06
3.8282e-06
3.87407e-06
4.11462e-06
4.50896e-06
5.05888e-06
5.78123e-06
6.70127e-06
7.83036e-06
9.18043e-06
1.07493e-05
1.25373e-05
1.45532e-05
1.68618e-05
1.94458e-05
2.22798e-05
2.53811e-05
2.86647e-05
3.2093e-05
3.56699e-05
3.92376e-05
4.29929e-05
4.65958e-05
5.05623e-05
5.38534e-05
5.81663e-05
6.03434e-05
6.77166e-05
1.8549e-05
7.3603e-06
4.20055e-06
3.37034e-06
3.06411e-06
3.02042e-06
3.11817e-06
3.35193e-06
3.7005e-06
4.16995e-06
4.77682e-06
5.5394e-06
6.46781e-06
7.57261e-06
8.8562e-06
1.03263e-05
1.19962e-05
1.39196e-05
1.60952e-05
1.85027e-05
2.11383e-05
2.4052e-05
2.71119e-05
3.03352e-05
3.35766e-05
3.70264e-05
4.0342e-05
4.40402e-05
4.7111e-05
5.11994e-05
5.32301e-05
6.02265e-05
1.75091e-05
4.96572e-06
3.0004e-06
2.49616e-06
2.33782e-06
2.36384e-06
2.47683e-06
2.68611e-06
2.98169e-06
3.37211e-06
3.87205e-06
4.49423e-06
5.24742e-06
6.13901e-06
7.17394e-06
8.361e-06
9.71506e-06
1.12791e-05
1.30617e-05
1.50563e-05
1.72574e-05
1.9695e-05
2.23413e-05
2.51872e-05
2.80684e-05
3.11673e-05
3.41597e-05
3.75436e-05
4.0354e-05
4.41645e-05
4.60334e-05
5.26097e-05
1.54345e-05
3.28989e-06
2.14371e-06
1.83577e-06
1.76265e-06
1.81778e-06
1.92603e-06
2.1035e-06
2.34621e-06
2.66312e-06
3.06686e-06
3.5667e-06
4.16886e-06
4.87976e-06
5.70358e-06
6.64841e-06
7.72766e-06
8.97538e-06
1.04028e-05
1.20121e-05
1.38036e-05
1.58036e-05
1.79841e-05
2.03743e-05
2.28619e-05
2.55765e-05
2.82134e-05
3.12355e-05
3.37499e-05
3.72188e-05
3.88989e-05
4.49678e-05
1.2223e-05
2.16876e-06
1.51371e-06
1.32146e-06
1.29606e-06
1.3576e-06
1.45142e-06
1.59541e-06
1.78843e-06
2.03899e-06
2.35779e-06
2.75123e-06
3.22442e-06
3.7826e-06
4.42897e-06
5.17069e-06
6.01856e-06
6.9984e-06
8.12084e-06
9.39065e-06
1.08117e-05
1.24097e-05
1.41651e-05
1.6106e-05
1.8141e-05
2.04071e-05
2.26511e-05
2.52698e-05
2.74579e-05
3.0529e-05
3.19988e-05
3.74475e-05
8.20901e-06
1.41158e-06
1.03546e-06
9.13993e-07
9.13801e-07
9.70048e-07
1.04564e-06
1.15726e-06
1.305e-06
1.49635e-06
1.74018e-06
2.04104e-06
2.40341e-06
2.83148e-06
3.32835e-06
3.89982e-06
4.55456e-06
5.31187e-06
6.18017e-06
7.16404e-06
8.26903e-06
9.5155e-06
1.08909e-05
1.24234e-05
1.40415e-05
1.58622e-05
1.76759e-05
1.983e-05
2.16494e-05
2.42625e-05
2.55084e-05
3.02348e-05
4.42158e-06
8.85153e-07
6.69435e-07
5.94464e-07
6.05302e-07
6.50703e-07
7.07195e-07
7.88732e-07
8.95738e-07
1.03447e-06
1.21193e-06
1.43156e-06
1.69721e-06
2.01253e-06
2.38071e-06
2.80666e-06
3.29725e-06
3.86737e-06
4.52284e-06
5.26908e-06
6.10854e-06
7.05814e-06
8.11001e-06
9.28687e-06
1.05355e-05
1.19499e-05
1.33667e-05
1.50665e-05
1.65101e-05
1.86178e-05
1.96169e-05
2.35125e-05
1.94516e-06
5.17358e-07
3.98324e-07
3.54634e-07
3.67551e-07
3.99984e-07
4.38302e-07
4.92893e-07
5.64136e-07
6.56915e-07
7.76173e-07
9.24603e-07
1.10542e-06
1.32159e-06
1.5761e-06
1.87351e-06
2.21918e-06
2.62406e-06
3.09361e-06
3.63162e-06
4.24111e-06
4.93479e-06
5.70574e-06
6.57277e-06
7.49699e-06
8.54937e-06
9.60803e-06
1.08869e-05
1.19783e-05
1.35889e-05
1.4351e-05
1.7374e-05
7.67864e-07
2.72381e-07
2.11579e-07
1.88118e-07
1.98255e-07
2.18166e-07
2.40843e-07
2.72971e-07
3.14856e-07
3.69648e-07
4.40639e-07
5.29486e-07
6.38515e-07
7.70001e-07
9.26337e-07
1.11078e-06
1.32758e-06
1.58424e-06
1.88476e-06
2.23312e-06
2.6315e-06
3.08912e-06
3.6023e-06
4.18407e-06
4.80831e-06
5.52511e-06
6.24981e-06
7.13351e-06
7.88936e-06
9.02056e-06
9.54987e-06
1.17043e-05
2.78191e-07
1.24195e-07
9.64266e-08
8.52148e-08
9.1177e-08
1.01241e-07
1.12362e-07
1.28172e-07
1.48759e-07
1.75876e-07
2.11251e-07
2.55748e-07
3.10714e-07
3.77482e-07
4.57479e-07
5.52697e-07
6.65681e-07
8.00598e-07
9.602e-07
1.14695e-06
1.36286e-06
1.61331e-06
1.89701e-06
2.22232e-06
2.57436e-06
2.98348e-06
3.39935e-06
3.91487e-06
4.35491e-06
5.03066e-06
5.33578e-06
6.64859e-06
8.86662e-08
4.64647e-08
3.57386e-08
3.12554e-08
3.3888e-08
3.78611e-08
4.21246e-08
4.82338e-08
5.6186e-08
6.67203e-08
8.05338e-08
9.79548e-08
1.19549e-07
1.45867e-07
1.7754e-07
2.15411e-07
2.60573e-07
3.14764e-07
3.79184e-07
4.55009e-07
5.43173e-07
6.46129e-07
7.63413e-07
8.99059e-07
1.04659e-06
1.22006e-06
1.39663e-06
1.61965e-06
1.80811e-06
2.10794e-06
2.23429e-06
2.82934e-06
2.34532e-08
1.33226e-08
1.00893e-08
8.7078e-09
9.5489e-09
1.07031e-08
1.19052e-08
1.36463e-08
1.59082e-08
1.89186e-08
2.28723e-08
2.7854e-08
3.40278e-08
4.15401e-08
5.05775e-08
6.13809e-08
7.42499e-08
8.96879e-08
1.08003e-07
1.29574e-07
1.54612e-07
1.83877e-07
2.17157e-07
2.55731e-07
2.97588e-07
3.47169e-07
3.97171e-07
4.61426e-07
5.14356e-07
6.02102e-07
6.34968e-07
8.10832e-07
4.53381e-09
2.61771e-09
1.94903e-09
1.65938e-09
1.83813e-09
2.06413e-09
2.2925e-09
2.62782e-09
3.06168e-09
3.64109e-09
4.40301e-09
5.35923e-09
6.5412e-09
7.9754e-09
9.69375e-09
1.17415e-08
1.41724e-08
1.70744e-08
2.05038e-08
2.45224e-08
2.91653e-08
3.45741e-08
4.0683e-08
4.7757e-08
5.5377e-08
6.4429e-08
7.34198e-08
8.51567e-08
9.44801e-08
1.10648e-07
1.1577e-07
1.48249e-07
4.43032e-10
2.50147e-10
1.83688e-10
1.54628e-10
1.72793e-10
1.94343e-10
2.15566e-10
2.47042e-10
2.87688e-10
3.42082e-10
4.13588e-10
5.0309e-10
6.13414e-10
7.46733e-10
9.0607e-10
1.09521e-09
1.31891e-09
1.5849e-09
1.89762e-09
2.26263e-09
2.68238e-09
3.16899e-09
3.71633e-09
4.34856e-09
5.02405e-09
5.82919e-09
6.61811e-09
7.66281e-09
8.46408e-09
9.91309e-09
1.0297e-08
1.32146e-08
4.37316e-12
2.40123e-12
1.75591e-12
1.46988e-12
1.6543e-12
1.86399e-12
2.06716e-12
2.37027e-12
2.76027e-12
3.28262e-12
3.96988e-12
4.82794e-12
5.88342e-12
7.15764e-12
8.67662e-12
1.04769e-11
1.2603e-11
1.51245e-11
1.80835e-11
2.1529e-11
2.54821e-11
3.00611e-11
3.51882e-11
4.1115e-11
4.74247e-11
5.49622e-11
6.22809e-11
7.20708e-11
7.94188e-11
9.30826e-11
9.62646e-11
1.23848e-10
6.32323e-05
7.57055e-05
7.30902e-05
7.14328e-05
6.57597e-05
5.88728e-05
5.22196e-05
4.70477e-05
4.48378e-05
4.51584e-05
4.77038e-05
5.18144e-05
5.68822e-05
6.25379e-05
6.86678e-05
7.48794e-05
8.11015e-05
8.7481e-05
9.38754e-05
0.000100711
0.000107703
0.000114721
0.000121884
0.000128944
0.000135672
0.000142552
0.000149288
0.000156173
0.000162063
0.000169091
0.000173327
0.000185339
6.30756e-05
7.53038e-05
7.10344e-05
6.71522e-05
6.00949e-05
5.27072e-05
4.69132e-05
4.32263e-05
4.20584e-05
4.29764e-05
4.55647e-05
4.93844e-05
5.41228e-05
5.9609e-05
6.56582e-05
7.17257e-05
7.78406e-05
8.4296e-05
9.08995e-05
9.7726e-05
0.000104661
0.000111686
0.000118773
0.000125742
0.000132413
0.000139198
0.00014578
0.000152561
0.000158369
0.000165308
0.000169456
0.000181282
6.28337e-05
7.42244e-05
6.63183e-05
5.94175e-05
5.12336e-05
4.41241e-05
3.96721e-05
3.75612e-05
3.74137e-05
3.88352e-05
4.14886e-05
4.52015e-05
4.97903e-05
5.51285e-05
6.09469e-05
6.68655e-05
7.28823e-05
7.93643e-05
8.60231e-05
9.27481e-05
9.95519e-05
0.000106474
0.000113425
0.00012028
0.000126864
0.00013353
0.000139945
0.000146585
0.000152271
0.000159093
0.000163128
0.000174693
6.2654e-05
7.1543e-05
5.87377e-05
4.95252e-05
4.1416e-05
3.55536e-05
3.25274e-05
3.16228e-05
3.22075e-05
3.39748e-05
3.67127e-05
4.03894e-05
4.48326e-05
4.99177e-05
5.54125e-05
6.10977e-05
6.69415e-05
7.32398e-05
7.97535e-05
8.63154e-05
9.29412e-05
9.96996e-05
0.000106481
0.000113201
0.000119675
0.000126222
0.000132477
0.000138975
0.000144525
0.000151213
0.000155132
0.000166419
6.26157e-05
6.6268e-05
4.89429e-05
3.91552e-05
3.22807e-05
2.80706e-05
2.62834e-05
2.61928e-05
2.72314e-05
2.9166e-05
3.18789e-05
3.53839e-05
3.95534e-05
4.42789e-05
4.93874e-05
5.47444e-05
6.03114e-05
6.62995e-05
7.25535e-05
7.889e-05
8.52879e-05
9.18275e-05
9.84059e-05
0.000104962
0.000111301
0.000117713
0.00012382
0.000130191
0.000135613
0.000142161
0.00014597
0.000156976
6.25497e-05
5.8007e-05
3.83432e-05
2.96801e-05
2.45343e-05
2.1864e-05
2.10084e-05
2.13982e-05
2.26363e-05
2.45656e-05
2.71312e-05
3.03603e-05
3.41668e-05
3.84692e-05
4.31399e-05
4.80885e-05
5.32845e-05
5.88789e-05
6.47663e-05
7.08035e-05
7.69391e-05
8.32121e-05
8.9542e-05
9.58926e-05
0.000102061
0.000108321
0.000114273
0.000120512
0.000125816
0.000132235
0.000135948
0.000146667
6.19545e-05
4.72903e-05
2.83787e-05
2.17645e-05
1.82874e-05
1.68063e-05
1.65627e-05
1.7191e-05
1.84501e-05
2.02503e-05
2.25785e-05
2.54655e-05
2.88577e-05
3.26961e-05
3.68879e-05
4.13725e-05
4.61258e-05
5.12616e-05
5.67066e-05
6.23511e-05
6.81492e-05
7.41215e-05
8.0154e-05
8.62433e-05
9.21923e-05
9.82535e-05
0.000104023
0.000110109
0.000115282
0.000121573
0.000125196
0.00013565
6.01639e-05
3.55704e-05
1.9978e-05
1.55311e-05
1.33898e-05
1.27111e-05
1.282e-05
1.3523e-05
1.46914e-05
1.62874e-05
1.83223e-05
2.08282e-05
2.37748e-05
2.7124e-05
3.08095e-05
3.47892e-05
3.90473e-05
4.3674e-05
4.86197e-05
5.37938e-05
5.91602e-05
6.47419e-05
7.04348e-05
7.62108e-05
8.18726e-05
8.76813e-05
9.32198e-05
9.91005e-05
0.000104107
0.000110235
0.000113754
0.000123937
5.66334e-05
2.44948e-05
1.34889e-05
1.08106e-05
9.61135e-06
9.40865e-06
9.68471e-06
1.03598e-05
1.13774e-05
1.27296e-05
1.44434e-05
1.65495e-05
1.90345e-05
2.18787e-05
2.50374e-05
2.84853e-05
3.22114e-05
3.62893e-05
4.06843e-05
4.5328e-05
5.01889e-05
5.52878e-05
6.05348e-05
6.59192e-05
7.12413e-05
7.67192e-05
8.19666e-05
8.75714e-05
9.23536e-05
9.82577e-05
0.000101634
0.000111471
5.08865e-05
1.53868e-05
8.79297e-06
7.30784e-06
6.70982e-06
6.75146e-06
7.07457e-06
7.66481e-06
8.50381e-06
9.60067e-06
1.09876e-05
1.26932e-05
1.47162e-05
1.70507e-05
1.96709e-05
2.25666e-05
2.57323e-05
2.92274e-05
3.30305e-05
3.70909e-05
4.13814e-05
4.59209e-05
5.0633e-05
5.55155e-05
6.03819e-05
6.54498e-05
7.03198e-05
7.55686e-05
8.00506e-05
8.56427e-05
8.88206e-05
9.81777e-05
4.24077e-05
8.89907e-06
5.51148e-06
4.73267e-06
4.48371e-06
4.62267e-06
4.92131e-06
5.39761e-06
6.04985e-06
6.89522e-06
7.96462e-06
9.28265e-06
1.08556e-05
1.26874e-05
1.47682e-05
1.70963e-05
1.96768e-05
2.25591e-05
2.573e-05
2.91556e-05
3.28131e-05
3.67205e-05
4.08134e-05
4.50978e-05
4.94055e-05
5.39317e-05
5.83062e-05
6.30813e-05
6.71659e-05
7.23319e-05
7.52419e-05
8.39405e-05
3.0934e-05
4.8156e-06
3.26218e-06
2.86974e-06
2.80034e-06
2.95015e-06
3.18542e-06
3.5349e-06
4.00305e-06
4.60828e-06
5.37679e-06
6.32796e-06
7.47159e-06
8.81624e-06
1.03639e-05
1.21198e-05
1.40951e-05
1.63313e-05
1.88267e-05
2.15601e-05
2.45169e-05
2.7715e-05
3.10997e-05
3.46833e-05
3.83201e-05
4.21835e-05
4.59449e-05
5.00986e-05
5.36563e-05
5.82405e-05
6.07836e-05
6.85887e-05
1.74803e-05
2.43749e-06
1.77362e-06
1.5831e-06
1.58726e-06
1.70338e-06
1.8609e-06
2.08685e-06
2.38583e-06
2.77305e-06
3.26827e-06
3.88462e-06
4.63276e-06
5.52215e-06
6.559e-06
7.75372e-06
9.12004e-06
1.06908e-05
1.24729e-05
1.44586e-05
1.66423e-05
1.90415e-05
2.16168e-05
2.43857e-05
2.72297e-05
3.02969e-05
3.33017e-05
3.66779e-05
3.95695e-05
4.33916e-05
4.54564e-05
5.20634e-05
6.35434e-06
1.12274e-06
8.54778e-07
7.66926e-07
7.87311e-07
8.57263e-07
9.44345e-07
1.06749e-06
1.22916e-06
1.43981e-06
1.71113e-06
2.05093e-06
2.46694e-06
2.96658e-06
3.55648e-06
4.24638e-06
5.04816e-06
5.98509e-06
7.06673e-06
8.29511e-06
9.67229e-06
1.12147e-05
1.29003e-05
1.47501e-05
1.66816e-05
1.88076e-05
2.09124e-05
2.33357e-05
2.54126e-05
2.82538e-05
2.97304e-05
3.47638e-05
1.51463e-06
4.4463e-07
3.45059e-07
3.084e-07
3.22725e-07
3.5462e-07
3.91923e-07
4.446e-07
5.13414e-07
6.03447e-07
7.20063e-07
8.66329e-07
1.0462e-06
1.26344e-06
1.52186e-06
1.82692e-06
2.18545e-06
2.60945e-06
3.10569e-06
3.6787e-06
4.33213e-06
5.0779e-06
5.9093e-06
6.84269e-06
7.83586e-06
8.95837e-06
1.00852e-05
1.1427e-05
1.25778e-05
1.42326e-05
1.50453e-05
1.80963e-05
3.35958e-07
1.49278e-07
1.15861e-07
1.02499e-07
1.08974e-07
1.20334e-07
1.32927e-07
1.50831e-07
1.74094e-07
2.04634e-07
2.44251e-07
2.93855e-07
3.54793e-07
4.28317e-07
5.15865e-07
6.19451e-07
7.41444e-07
8.86283e-07
1.05637e-06
1.25408e-06
1.48083e-06
1.74234e-06
2.03598e-06
2.37021e-06
2.72933e-06
3.14361e-06
3.56129e-06
4.07536e-06
4.51089e-06
5.17597e-06
5.4726e-06
6.75017e-06
7.15188e-08
4.01262e-08
3.08212e-08
2.69065e-08
2.89929e-08
3.20859e-08
3.5354e-08
4.00514e-08
4.61224e-08
5.41091e-08
6.44709e-08
7.7374e-08
9.31599e-08
1.1212e-07
1.34628e-07
1.61164e-07
1.92343e-07
2.29247e-07
2.72452e-07