/*--------------------------------*- C++ -*----------------------------------*\
| =========                 |                                                 |
| \\      /  F ield         | OpenFOAM: The Open Source CFD Toolbox           |
|  \\    /   O peration     | Version:  2.3.1                                 |
|   \\  /    A nd           | Web:      www.OpenFOAM.org                      |
|    \\/     M anipulation  |                                                 |
\*---------------------------------------------------------------------------*/
FoamFile
{
    version     2.0;
    format      ascii;
    class       volScalarField;
    location    "3000";
    object      myWallHeatFlux;
}
// * * * * * * * * * * * * * * * * * * * * * * * * * * * * * * * * * * * * * //

dimensions      [1 0 -3 0 0 0 0];

internalField   uniform 0;

boundaryField
{
    inlet
    {
        type            calculated;
        value           nonuniform List<scalar> 
1200
(
-147523
-147542
-147570
-147587
-147582
-147579
-147657
-147926
-148486
-149389
-150613
-152058
-153663
-155457
-157484
-159712
-162012
-164234
-166255
-168005
-90132.6
-90218.9
-90347.1
-90420.8
-90389.9
-90368.3
-90720
-91969.6
-94559.2
-98699.8
-104223
-110569
-117307
-124417
-131998
-139914
-147704
-154887
-161146
-166366
-44547.9
-44588.5
-44645.6
-44668.2
-44629.8
-44593.5
-44755.9
-45418.7
-46928
-49767
-54791
-63265.4
-75651.9
-90166.4
-105138
-119960
-133858
-146143
-156486
-164885
-32533.9
-32549.8
-32570.2
-32573.5
-32548.7
-32526.4
-32596.8
-32887.8
-33521.9
-34652.9
-36617.4
-40192.1
-47084.3
-60267.3
-80401.8
-102203
-122049
-138921
-152711
-163673
-27054.1
-27069.2
-27086.4
-27085
-27058
-27040.1
-27133.1
-27468
-28143.4
-29200.4
-30681.6
-32818.5
-36453.2
-43969.5
-60601.8
-86998
-112394
-133225
-149776
-162699
-22242.7
-22264.3
-22289.4
-22288
-22254.2
-22244.8
-22419.1
-22961.2
-23979.4
-25451.3
-27276.1
-29413
-32206.7
-37082.3
-48454.2
-73850.6
-104148
-128532
-147381
-161865
-16725.8
-16758.5
-16798
-16806.2
-16782.5
-16817.4
-17145.4
-18014.1
-19554.6
-21718.5
-24297
-27026.8
-29912.8
-33893.8
-42195.4
-63755.8
-97199.1
-124639
-145387
-161119
-10868.2
-10914.6
-10977.8
-11015.5
-11037.8
-11176.1
-11730.1
-13001.2
-15150
-18105.7
-21550
-25045
-28354.6
-32148.1
-38959.8
-57257.7
-91853.9
-121624
-143801
-160455
-5740.76
-5795.36
-5877.64
-5950.93
-6038.59
-6295.83
-7047.42
-8645.08
-11322.7
-15020.7
-19284.1
-23488.3
-27261
-31107
-37252.2
-53512.4
-88152
-119465
-142596
-159856
-2383.75
-2430.45
-2504.82
-2586.38
-2703.5
-3002.41
-3795.32
-5500.05
-8496.71
-12770.6
-17691.8
-22440.3
-26571.2
-30506.3
-36364.4
-51481.4
-85820.3
-118012
-141687
-159289
-774.224
-801.529
-848.952
-907.154
-1004.52
-1259.6
-1962.69
-3609.57
-6745.99
-11407.9
-16780
-21872.6
-26214.4
-30207
-35937.3
-50448.2
-84439.3
-117028
-140956
-158713
-195.442
-207.298
-228.854
-259.392
-320.108
-506.928
-1098.28
-2658.23
-5860.75
-10761.5
-16388.8
-21647
-26075.4
-30084.2
-35744.3
-49912.1
-83558
-116265
-140277
-158084
-37.0045
-40.5972
-48.1416
-60.357
-94.1283
-232.446
-752.309
-2266.27
-5518.73
-10547.4
-16280.6
-21587.4
-26030.5
-30028.1
-35625.1
-49516.2
-82784.5
-115506
-139541
-157359
-3.59254
-4.31108
-6.46669
-11.1372
-32.6933
-149.815
-641.295
-2139.45
-5411.31
-10479.5
-16236.1
-21545.7
-25984.5
-29961.6
-35479.9
-49041.3
-81856.9
-114602
-138670
-156503
1.79649
1.79649
1.07795
-1.07766
-17.9633
-124.307
-595.308
-2066.87
-5321.49
-10386.8
-16143.7
-21453.4
-25895
-29851
-35268
-48400
-80652.6
-113476
-137615
-155487
2.51503
2.51503
2.15576
0.718685
-14.7299
-113.888
-563.333
-1993.58
-5198.62
-10230.2
-15977.4
-21296.4
-25754.2
-29693.6
-34992
-47604.9
-79164.9
-112108
-136352
-154283
2.51503
2.51503
2.51503
1.07795
-11.8557
-100.954
-517.347
-1882.21
-5010
-9993.06
-15736.3
-21077.9
-25566.3
-29495.7
-34662.2
-46679.8
-77392.6
-110479
-134856
-152861
2.51503
2.51503
2.51503
1.43722
-10.0594
-90.1763
-476.749
-1778.02
-4819.95
-9740.5
-15468.7
-20830.8
-25352.9
-29274.7
-34304.4
-45686
-75393.3
-108599
-133110
-151189
2.51503
2.51503
2.51503
1.79649
-7.5445
-76.5241
-425.733
-1646.89
-4583.19
-9427.93
-15140.3
-20530.1
-25094.2
-29016.1
-33899.5
-44581.3
-73072.8
-106386
-131053
-149218
2.51503
2.51503
2.51503
1.79649
-6.10742
-68.2609
-391.603
-1547.73
-4381.28
-9131.53
-14805.5
-20207.8
-24810
-28735.5
-33469.1
-43424.4
-70495.7
-103842
-128657
-146901
2.51503
2.51503
2.51503
2.15576
-4.67035
-58.5607
-350.646
-1425.94
-4130.15
-8762.21
-14388.4
-19807.9
-24458.3
-28400.6
-32976.2
-42146.1
-67518.5
-100840
-125828
-144168
2.51503
2.51503
2.51503
2.15576
-3.23327
-49.9382
-310.049
-1299.12
-3855.31
-8341.86
-13900.1
-19331.2
-24035.5
-28009
-32421.9
-40772.7
-64152.8
-97321.2
-122501
-140946
2.51503
2.51503
2.51503
2.15576
-2.51473
-42.7526
-274.481
-1178.76
-3575.08
-7886.67
-13347.6
-18775.4
-23534.6
-27553.8
-31803.6
-39331.6
-60436.5
-93223.8
-118596
-137152
2.51503
2.51503
2.51503
2.15576
-1.43693
-35.9267
-238.554
-1050.14
-3263.24
-7361.78
-12693.3
-18105
-22924.2
-27008.8
-31103.4
-37830.6
-56394.1
-88434
-113998
-132678
2.51503
2.51503
2.51503
2.51503
-0.718391
-29.4599
-203.346
-918.65
-2928.4
-6772.22
-11930.6
-17301.7
-22178
-26348.1
-30311.2
-36294.7
-52118
-82853.8
-108591
-127405
2.51503
2.51503
2.51503
2.51503
0.000146959
-22.9931
-167.059
-778.535
-2558.71
-6097.15
-11027.8
-16323
-21249.7
-25525.7
-29408.7
-34739.5
-47743.5
-76369.8
-102230
-121190
2.51503
2.51503
2.51503
2.51503
0.718685
-16.8855
-130.774
-634.109
-2161.72
-5338.37
-9967.91
-15133.8
-20087.4
-24485.3
-28379.4
-33175.2
-43484.4
-68945.5
-94770.8
-113866
2.51503
2.51503
2.51503
2.51503
1.07795
-11.4965
-97.0024
-492.198
-1750.72
-4508.82
-8748.91
-13705.7
-18640.3
-23161
-27171.9
-31542.4
-39526.4
-60706
-86081.5
-105246
2.51503
2.51503
2.51503
2.51503
1.79649
-6.82596
-66.1053
-355.676
-1330.73
-3604.9
-7335.91
-11961.1
-16791.9
-21407.8
-25613.7
-29714.5
-35995.8
-52084.6
-76106.8
-95131.9
2.51503
2.51503
2.51503
2.51503
2.15576
-2.874
-40.238
-232.806
-926.195
-2666.49
-5749.74
-9859.77
-14421.8
-19023.6
-23431.2
-27589
-32867.3
-43904.4
-64930.3
-83311.2
2.51503
2.51503
2.51503
2.51503
2.15576
-0.359122
-22.6338
-145.504
-617.942
-1889.75
-4311.94
-7774.22
-11863.1
-16228.9
-20671.3
-25067.3
-29743.9
-37305
-53637.7
-70677.5
2.51503
2.51503
2.51503
2.51503
2.51503
0.718685
-12.9335
-92.3319
-417.111
-1342.23
-3206.11
-6019.55
-9517.39
-13437.7
-17641.2
-22071
-26726.4
-32989.9
-44445.1
-59254.2
2.51503
2.51503
2.51503
2.51503
2.51503
1.43722
-8.6223
-68.6202
-323.701
-1070.62
-2604.34
-4958.27
-7943.07
-11369.1
-15154
-19309.6
-23905.8
-29337.2
-37537.5
-49735.7
2.51503
2.51503
2.51503
2.51503
2.51503
1.43722
-6.46669
-57.4829
-279.511
-931.584
-2253.33
-4256.26
-6789.46
-9722.53
-13017.7
-16725
-20966.9
-25959.7
-32635.3
-41949.3
2.51503
2.51503
2.51503
2.51503
2.51503
1.43722
-6.82596
-59.9977
-289.929
-938.051
-2172.5
-3948.72
-6134.87
-8648.32
-11489.4
-14730.4
-18505.2
-23004.7
-28545.4
-35571.2
2.51503
2.51503
2.51503
2.51503
2.51503
1.43722
-9.34084
-76.5241
-350.287
-1045.11
-2229.98
-3809.33
-5682.91
-7815.53
-10238.8
-13039.7
-16351
-20318.8
-25040
-30473.2
2.51503
2.51503
2.51503
2.51503
2.51503
0.718685
-16.1669
-116.403
-473.156
-1224.39
-2329.86
-3689.69
-5252.51
-7022.27
-9053.21
-11443.1
-14323
-17801.8
-21838.5
-26176
2.51503
2.51503
2.51503
2.51503
2.15576
-0.359122
-25.8672
-164.186
-576.626
-1304.86
-2270.94
-3407.66
-4697.8
-6164.33
-7867.63
-9907.2
-12404.5
-15429.9
-18847.2
-22324.6
2.51503
2.51503
2.51503
2.51503
2.15576
-1.7962
-35.2082
-199.753
-615.787
-1269.66
-2090.23
-3038.34
-4112.19
-5340.53
-6784.07
-8535.87
-10701.5
-13312
-16177.2
-18974.1
2.51503
2.51503
2.51503
2.51503
2.15576
-2.874
-43.471
-219.513
-610.038
-1177.32
-1867.84
-2659.31
-3556.76
-4590.38
-5817.28
-7322.62
-9194.77
-11430.5
-13819.6
-16080.2
2.51503
2.51503
2.51503
2.51503
2.15576
-3.23327
-45.9859
-217.717
-565.489
-1047.99
-1626.05
-2286.03
-3037.26
-3907.77
-4951.44
-6243.73
-7856.85
-9763.85
-11754.6
-13594.7
2.51503
2.51503
2.51503
2.51503
2.15576
-2.51473
-43.1118
-199.753
-501.18
-907.872
-1390.37
-1941.13
-2569.85
-3303.12
-4189.07
-5295.98
-6681.32
-8302.34
-9962.16
-11468.9
2.51503
2.51503
2.51503
2.51503
2.15576
-2.15547
-39.8787
-180.353
-439.026
-781.409
-1184.51
-1644.73
-2170.7
-2787.57
-3538.44
-4482.24
-5666.03
-7038.08
-8419.82
-9656.79
2.51503
2.51503
2.51503
2.51503
2.15576
-1.7962
-36.6453
-161.671
-383.34
-671.114
-1008.47
-1392.53
-1832.63
-2351.05
-2985.16
-3787.05
-4793.72
-5950.57
-7098.43
-8114.44
2.51503
2.51503
2.51503
2.51503
2.15576
-1.7962
-35.5675
-147.659
-337.353
-579.5
-861.526
-1181.99
-1549.89
-1984.6
-2518.47
-3197.13
-4048.96
-5018.98
-5969.61
-6803.47
2.51503
2.51503
2.51503
2.51503
2.15576
-2.51473
-35.5675
-135.085
-296.397
-499.024
-733.986
-1001.28
-1308.1
-1671.32
-2120.04
-2692
-3409.46
-4219.97
-5005.33
-5689.02
2.51503
2.51503
2.8743
2.8743
2.15576
-3.23327
-35.5675
-122.151
-256.518
-424.296
-619.02
-840.688
-1095.41
-1398.63
-1774.07
-2255.13
-2857.62
-3533.05
-4181.17
-4741.63
2.8743
2.8743
2.8743
2.8743
1.43722
-4.67035
-35.2082
-107.421
-216.998
-354.238
-514.113
-696.981
-908.231
-1160.08
-1474.08
-1877.18
-2381.95
-2943.13
-3477.36
-3936.51
2.8743
2.8743
2.8743
2.51503
0.718685
-6.82596
-34.1304
-92.6912
-180.353
-291.007
-421.063
-570.878
-745.123
-954.577
-1216.12
-1553.84
-1974.9
-2439.79
-2878.1
-3253.18
2.15576
2.15576
2.15576
1.43722
-1.07766
-8.98157
-32.6933
-79.039
-148.378
-236.758
-342.024
-464.175
-607.523
-780.691
-998.408
-1279.72
-1629.64
-2011.55
-2369.02
-2673.32
0.359416
0.718685
0.359416
-0.359122
-3.23327
-11.1372
-30.897
-68.2609
-123.229
-193.646
-278.433
-377.591
-494.713
-637.343
-817.696
-1050.86
-1338.99
-1649.76
-1937.54
-2181.48
-1.7962
-1.7962
-2.15547
-2.874
-5.74815
-12.9335
-29.8192
-60.7163
-104.906
-161.312
-229.213
-309.33
-404.896
-521.658
-670.395
-862.245
-1096.13
-1344.74
-1572.88
-1765.09
-5.02962
-5.02962
-5.02962
-5.74815
-8.26304
-14.7299
-29.4599
-55.3272
-91.9727
-138.318
-193.286
-257.955
-335.198
-430.763
-551.837
-707.4
-893.861
-1088.23
-1264.27
-1411.93
-8.6223
-8.6223
-8.26304
-8.98157
-11.1372
-17.2448
-30.1784
-52.0938
-83.3502
-122.511
-168.137
-220.95
-283.463
-359.987
-457.708
-580.937
-725.364
-871.945
-1003.44
-1113.01
-12.9335
-12.5743
-12.5743
-12.9335
-15.0891
-20.1189
-31.6155
-51.016
-78.3204
-112.092
-151.252
-195.442
-245.74
-306.815
-382.98
-477.468
-583.812
-689.437
-782.128
-859.371
-18.3226
-17.9633
-17.604
-17.9633
-19.7596
-24.4301
-34.4897
-51.7346
-76.1648
-105.984
-140.474
-178.197
-219.872
-267.655
-324.779
-391.962
-464.534
-533.873
-594.23
-644.169
-25.5079
-24.7894
-24.4301
-24.4301
-25.8672
-30.1784
-39.5194
-54.968
-76.8834
-104.188
-134.726
-168.137
-202.987
-239.632
-278.792
-321.186
-363.221
-401.662
-434.715
-461.66
-34.8489
-34.1304
-33.4119
-33.4119
-34.8489
-38.8009
-47.0637
-61.4348
-81.5539
-106.702
-134.726
-164.186
-192.927
-219.513
-243.225
-262.985
-278.792
-291.007
-300.349
-307.175
-46.7044
-45.9859
-45.2673
-44.9081
-45.9859
-49.5789
-57.4829
-70.7758
-89.8171
-113.17
-139.396
-165.982
-190.053
-208.376
-218.795
-221.309
-216.28
-205.502
-192.209
-178.197
-55.3272
-54.6087
-53.5309
-53.1716
-54.2494
-57.4829
-65.3868
-78.3204
-96.6432
-119.636
-144.785
-169.574
-190.772
-204.424
-208.376
-201.19
-183.227
-155.563
-119.996
-78.6797
)
;
    }
    outlet
    {
        type            calculated;
        value           uniform 0;
    }
    middlePlane
    {
        type            symmetryPlane;
    }
    sideWall
    {
        type            calculated;
        value           nonuniform List<scalar> 
1920
(
2.17711e+06
6.32292e+06
9.974e+06
1.28179e+07
1.49248e+07
1.6552e+07
1.78186e+07
1.87244e+07
1.92911e+07
1.95799e+07
1.96682e+07
1.96387e+07
1.95571e+07
1.94626e+07
1.93704e+07
1.92749e+07
1.9167e+07
1.90241e+07
1.88547e+07
1.86332e+07
1.83728e+07
1.80584e+07
1.76758e+07
1.72213e+07
1.66789e+07
1.60366e+07
1.52734e+07
1.4363e+07
1.32393e+07
1.18458e+07
1.03466e+07
8.89826e+06
7.76948e+06
6.77912e+06
6.01669e+06
5.38308e+06
4.9678e+06
4.4813e+06
3.96872e+06
3.46785e+06
3.00848e+06
2.59495e+06
2.22464e+06
1.89356e+06
1.59983e+06
1.344e+06
1.12464e+06
938322
775789
637285
517046
410045
317478
235085
166957
108383
57939.2
14098
-33583.8
-122281
373417
1.18995e+06
2.15183e+06
3.27876e+06
4.56471e+06
5.96336e+06
7.38641e+06
8.75836e+06
1.00603e+07
1.12944e+07
1.24317e+07
1.34028e+07
1.41358e+07
1.46014e+07
1.48477e+07
1.49545e+07
1.50119e+07
1.50413e+07
1.50811e+07
1.50808e+07
1.50735e+07
1.50373e+07
1.4956e+07
1.48432e+07
1.46904e+07
1.45001e+07
1.42373e+07
1.38363e+07
1.31951e+07
1.22068e+07
1.08272e+07
9.22544e+06
7.75212e+06
6.50975e+06
5.74141e+06
5.24927e+06
4.99797e+06
4.58564e+06
4.08596e+06
3.57888e+06
3.1069e+06
2.6811e+06
2.30352e+06
1.96473e+06
1.66486e+06
1.40039e+06
1.16836e+06
962105
778758
620405
481496
362271
259037
174523
106050
50678.4
5266.36
-31707.8
-74214.5
-161217
256750
817664
1.47834e+06
2.25391e+06
3.15232e+06
4.15887e+06
5.23426e+06
6.33144e+06
7.42843e+06
8.52451e+06
9.61846e+06
1.06914e+07
1.1698e+07
1.25757e+07
1.3268e+07
1.37587e+07
1.40905e+07
1.42847e+07
1.44247e+07
1.44884e+07
1.45398e+07
1.45748e+07
1.45534e+07
1.45127e+07
1.44341e+07
1.43307e+07
1.41742e+07
1.38946e+07
1.34032e+07
1.26099e+07
1.1392e+07
9.81009e+06
8.21318e+06
6.87496e+06
6.03466e+06
5.46755e+06
5.17772e+06
4.72848e+06
4.19879e+06
3.67383e+06
3.19901e+06
2.77106e+06
2.37954e+06
2.02139e+06
1.69843e+06
1.40898e+06
1.15364e+06
929487
734199
566960
425779
306032
205783
124368
60827.4
12228.8
-26317.2
-59872.3
-100686
-187729
213599
681443
1.23259e+06
1.87928e+06
2.62764e+06
3.4681e+06
4.37126e+06
5.29701e+06
6.22666e+06
7.1635e+06
8.12102e+06
9.10339e+06
1.01037e+07
1.10837e+07
1.19873e+07
1.27517e+07
1.33365e+07
1.37389e+07
1.4018e+07
1.4169e+07
1.42689e+07
1.43429e+07
1.4359e+07
1.43416e+07
1.42916e+07
1.42223e+07
1.41047e+07
1.38717e+07
1.34457e+07
1.27544e+07
1.1657e+07
1.01247e+07
8.47147e+06
7.08342e+06
6.19002e+06
5.57237e+06
5.26242e+06
4.79816e+06
4.26653e+06
3.74596e+06
3.26029e+06
2.8098e+06
2.39471e+06
2.01454e+06
1.67368e+06
1.36985e+06
1.10424e+06
874353
676567
511894
371785
256632
159424
82882.9
24323.3
-19208.5
-52616.8
-82736.8
-123608
-207142
187110
597143
1.07882e+06
1.64543e+06
2.30029e+06
3.03677e+06
3.82861e+06
4.64266e+06
5.46127e+06
6.28695e+06
7.13252e+06
8.01107e+06
8.92915e+06
9.87724e+06
1.08251e+07
1.17122e+07
1.24742e+07
1.30628e+07
1.34909e+07
1.37586e+07
1.39279e+07
1.40424e+07
1.41009e+07
1.4117e+07
1.40926e+07
1.4051e+07
1.3965e+07
1.3771e+07
1.34021e+07
1.28013e+07
1.18232e+07
1.03669e+07
8.68443e+06
7.25081e+06
6.30587e+06
5.65064e+06
5.33529e+06
4.86928e+06
4.33407e+06
3.80214e+06
3.29694e+06
2.82231e+06
2.38501e+06
1.98608e+06
1.63103e+06
1.31999e+06
1.05015e+06
820872
625532
461854
324558
210666
118239
44878.7
-8683.32
-48879
-78899
-105586
-144750
-228312
168476
537350
971095
1.48106e+06
2.06963e+06
2.73131e+06
3.44278e+06
4.17297e+06
4.90628e+06
5.64452e+06
6.39857e+06
7.18287e+06
8.01189e+06
8.88962e+06
9.81051e+06
1.0735e+07
1.16029e+07
1.23466e+07
1.29231e+07
1.33207e+07
1.35809e+07
1.37515e+07
1.3859e+07
1.39096e+07
1.39142e+07
1.39014e+07
1.38452e+07
1.36869e+07
1.33677e+07
1.28482e+07
1.19805e+07
1.06032e+07
8.90198e+06
7.42581e+06
6.43268e+06
5.74651e+06
5.42841e+06
4.95498e+06
4.4034e+06
3.84351e+06
3.30657e+06
2.8034e+06
2.34359e+06
1.93315e+06
1.572e+06
1.25941e+06
991371
764218
569628
410195
275686
164735
75372.2
5177.12
-45137.4
-80272.9
-106915
-130178
-165875
-249467
155705
496150
896623
1.36653e+06
1.90931e+06
2.51751e+06
3.16988e+06
3.83934e+06
4.5094e+06
5.18382e+06
5.87284e+06
6.58993e+06
7.35177e+06
8.17113e+06
9.05008e+06
9.96507e+06
1.08674e+07
1.1694e+07
1.23855e+07
1.29016e+07
1.3256e+07
1.34916e+07
1.36497e+07
1.37389e+07
1.37743e+07
1.37895e+07
1.37625e+07
1.36362e+07
1.33604e+07
1.29095e+07
1.21324e+07
1.08271e+07
9.11728e+06
7.60379e+06
6.5611e+06
5.83583e+06
5.50382e+06
5.0051e+06
4.42187e+06
3.82957e+06
3.26476e+06
2.74137e+06
2.27188e+06
1.85869e+06
1.49811e+06
1.18812e+06
923194
699571
508859
351931
220130
113744
27398.9
-37946.1
-85037.6
-115134
-136664
-156513
-190518
-274147
147860
469667
848586
1.29308e+06
1.8056e+06
2.37878e+06
2.99044e+06
3.61548e+06
4.24333e+06
4.87398e+06
5.52054e+06
6.19569e+06
6.91718e+06
7.69688e+06
8.54095e+06
9.42765e+06
1.03188e+07
1.11647e+07
1.19134e+07
1.25158e+07
1.29575e+07
1.32619e+07
1.34725e+07
1.36016e+07
1.3672e+07
1.37188e+07
1.37217e+07
1.36241e+07
1.33844e+07
1.29915e+07
1.22856e+07
1.10428e+07
9.33265e+06
7.77935e+06
6.67413e+06
5.88732e+06
5.5301e+06
4.99962e+06
4.38358e+06
3.76496e+06
3.18264e+06
2.65198e+06
2.18235e+06
1.76991e+06
1.41385e+06
1.10922e+06
848777
628546
441597
287078
161255
57699.6
-23963.9
-86211.9
-126642
-153459
-169896
-186345
-216906
-298808
142925
453924
821078
1.25088e+06
1.74486e+06
2.29562e+06
2.88008e+06
3.47614e+06
4.07323e+06
4.67522e+06
5.29443e+06
5.94347e+06
6.64113e+06
7.3994e+06
8.22156e+06
9.08805e+06
9.96065e+06
1.07945e+07
1.15521e+07
1.21954e+07
1.27004e+07
1.30684e+07
1.33305e+07
1.35016e+07
1.36074e+07
1.36818e+07
1.3705e+07
1.36253e+07
1.34097e+07
1.30577e+07
1.24065e+07
1.12266e+07
9.53183e+06
7.93286e+06
6.751e+06
5.89458e+06
5.50422e+06
4.94853e+06
4.30798e+06
3.6746e+06
3.08721e+06
2.55618e+06
2.09017e+06
1.68266e+06
1.32967e+06
1.02885e+06
771277
554367
371120
220615
95708.8
-3392.37
-80422.3
-139614
-175158
-195244
-206606
-217915
-246801
-326989
140961
447022
808249
1.23116e+06
1.71629e+06
2.25338e+06
2.8213e+06
3.39796e+06
3.97383e+06
4.55673e+06
5.15789e+06
5.792e+06
6.47687e+06
7.2235e+06
8.03719e+06
8.89548e+06
9.75658e+06
1.05731e+07
1.13106e+07
1.19501e+07
1.24776e+07
1.28879e+07
1.31935e+07
1.34026e+07
1.35381e+07
1.36292e+07
1.36592e+07
1.35826e+07
1.3376e+07
1.30486e+07
1.24453e+07
1.1343e+07
9.69718e+06
8.05244e+06
6.78984e+06
5.86767e+06
5.44828e+06
4.87657e+06
4.22144e+06
3.5799e+06
2.99069e+06
2.46181e+06
1.99809e+06
1.59407e+06
1.24557e+06
947024
692270
478643
297429
149230
28534.2
-67828.9
-141969
-194700
-227105
-240485
-245042
-252975
-278439
-358684
140923
446950
808119
1.22999e+06
1.71214e+06
2.24425e+06
2.80238e+06
3.36541e+06
3.92868e+06
4.49901e+06
5.08875e+06
5.71437e+06
6.39182e+06
7.13499e+06
7.94718e+06
8.80506e+06
9.66308e+06
1.04656e+07
1.11734e+07
1.17746e+07
1.22787e+07
1.26937e+07
1.30224e+07
1.32589e+07
1.34148e+07
1.35107e+07
1.35356e+07
1.34511e+07
1.32437e+07
1.29308e+07
1.23768e+07
1.13736e+07
9.81851e+06
8.13975e+06
6.80289e+06
5.82198e+06
5.38131e+06
4.79957e+06
4.13408e+06
3.48874e+06
2.8992e+06
2.37147e+06
1.91025e+06
1.50701e+06
1.16156e+06
865273
611761
399772
222164
76243.5
-41944.9
-135611
-206894
-254914
-282481
-289177
-288699
-289769
-311817
-390358
141896
452750
816790
1.24345e+06
1.7294e+06
2.26143e+06
2.81555e+06
3.37166e+06
3.92708e+06
4.4906e+06
5.07445e+06
5.69525e+06
6.3698e+06
7.11103e+06
7.92322e+06
8.78387e+06
9.64279e+06
1.0438e+07
1.11197e+07
1.16679e+07
1.21087e+07
1.24833e+07
1.28027e+07
1.3048e+07
1.32135e+07
1.33078e+07
1.33213e+07
1.32248e+07
1.30129e+07
1.27107e+07
1.22099e+07
1.13247e+07
9.89529e+06
8.20794e+06
6.79935e+06
5.7715e+06
5.31346e+06
4.72627e+06
4.05296e+06
3.40336e+06
2.81273e+06
2.28516e+06
1.82526e+06
1.42435e+06
1.07911e+06
783595
531320
320967
143695
0.44017
-115725
-206729
-275188
-320250
-341283
-343061
-334076
-330049
-348694
-425541
144808
461476
834244
1.26864e+06
1.76229e+06
2.29806e+06
2.85204e+06
3.40507e+06
3.95646e+06
4.51495e+06
5.09577e+06
5.71443e+06
6.38686e+06
7.12599e+06
7.93696e+06
8.7983e+06
9.66064e+06
1.04555e+07
1.11222e+07
1.16255e+07
1.19862e+07
1.22747e+07
1.25447e+07
1.27747e+07
1.29395e+07
1.3028e+07
1.303e+07
1.29238e+07
1.27101e+07
1.24202e+07
1.19742e+07
1.11829e+07
9.93221e+06
8.26944e+06
6.79336e+06
5.7233e+06
5.24971e+06
4.65664e+06
3.97804e+06
3.32485e+06
2.73126e+06
2.20417e+06
1.74312e+06
1.34178e+06
996750
700462
449380
239019
63657.6
-79495.1
-194478
-282876
-346849
-388981
-403506
-400388
-382918
-372055
-385546
-460701
148701
473139
855605
1.30063e+06
1.80294e+06
2.3454e+06
2.90114e+06
3.453e+06
4.00131e+06
4.55767e+06
5.13627e+06
5.75185e+06
6.42113e+06
7.15611e+06
7.96298e+06
8.82297e+06
9.6858e+06
1.04848e+07
1.11509e+07
1.16331e+07
1.19268e+07
1.21074e+07
1.22809e+07
1.2465e+07
1.26125e+07
1.26953e+07
1.26893e+07
1.25786e+07
1.23672e+07
1.20923e+07
1.17001e+07
1.10112e+07
9.90774e+06
8.33192e+06
6.79287e+06
5.68008e+06
5.19065e+06
4.59155e+06
3.90932e+06
3.25096e+06
2.65478e+06
2.12459e+06
1.66244e+06
1.26073e+06
912982
617404
365941
155538
-21210
-162239
-276522
-362353
-423583
-461104
-472610
-461155
-436969
-417541
-425892
-499366
152587
486745
877930
1.33361e+06
1.8465e+06
2.39562e+06
2.95217e+06
3.50192e+06
4.04804e+06
4.60228e+06
5.17779e+06
5.78826e+06
6.45248e+06
7.1796e+06
7.9786e+06
8.83178e+06
9.69436e+06
1.04995e+07
1.1177e+07
1.16622e+07
1.19254e+07
1.20105e+07
1.20533e+07
1.21523e+07
1.22637e+07
1.23359e+07
1.23255e+07
1.22144e+07
1.20099e+07
1.17526e+07
1.14089e+07
1.08144e+07
9.86477e+06
8.39615e+06
6.80009e+06
5.64283e+06
5.16039e+06
4.54135e+06
3.84375e+06
3.18056e+06
2.58085e+06
2.04772e+06
1.58323e+06
1.17833e+06
829296
529831
277867
65715
-109271
-251537
-363529
-446848
-507088
-540054
-545126
-527098
-492731
-466504
-469729
-539769
156480
498402
900230
1.36655e+06
1.88812e+06
2.44098e+06
2.99833e+06
3.54595e+06
4.08806e+06
4.6382e+06
5.20866e+06
5.8132e+06
6.46858e+06
7.186e+06
7.97258e+06
8.8153e+06
9.67318e+06
1.0482e+07
1.1175e+07
1.16831e+07
1.19563e+07
1.19891e+07
1.19034e+07
1.18729e+07
1.19223e+07
1.197e+07
1.19584e+07
1.18499e+07
1.16549e+07
1.14167e+07
1.11143e+07
1.06019e+07
9.79808e+06
8.46045e+06
6.81775e+06
5.61089e+06
5.11242e+06
4.47484e+06
3.78032e+06
3.11251e+06
2.50703e+06
1.97094e+06
1.50138e+06
1.09316e+06
741238
440808
186732
-27235.5
-203780
-344073
-455493
-538047
-593946
-624102
-624509
-598211
-555439
-517185
-515295
-583670
160359
510043
920611
1.39562e+06
1.92484e+06
2.48049e+06
3.03573e+06
3.57932e+06
4.1164e+06
4.66061e+06
5.2242e+06
5.82182e+06
6.46755e+06
7.17155e+06
7.94297e+06
8.77081e+06
9.61965e+06
1.04288e+07
1.11349e+07
1.16729e+07
1.19829e+07
1.20201e+07
1.18448e+07
1.1661e+07
1.16114e+07
1.16192e+07
1.16007e+07
1.14982e+07
1.13136e+07
1.10929e+07
1.08196e+07
1.03807e+07
9.70825e+06
8.51905e+06
6.84696e+06
5.58424e+06
5.03594e+06
4.41975e+06
3.71703e+06
3.04459e+06
2.43455e+06
1.89297e+06
1.41961e+06
1.00664e+06
650298
347279
89402.9
-124912
-301472
-443151
-552408
-634251
-687564
-713250
-709024
-674490
-621597
-573090
-562588
-627542
163275
520694
939976
1.42368e+06
1.95863e+06
2.51609e+06
3.06826e+06
3.60589e+06
4.13704e+06
4.67433e+06
5.23198e+06
5.82091e+06
6.45504e+06
7.14382e+06
7.89645e+06
8.70481e+06
9.53826e+06
1.03426e+07
1.10577e+07
1.16225e+07
1.19788e+07
1.20631e+07
1.18648e+07
1.15448e+07
1.1353e+07
1.12993e+07
1.12624e+07
1.11647e+07
1.09904e+07
1.07861e+07
1.05332e+07
1.02019e+07
9.66372e+06
8.56515e+06
6.88916e+06
5.5622e+06
5.02254e+06
4.38454e+06
3.66086e+06
2.97568e+06
2.35974e+06
1.81251e+06
1.33384e+06
915927
556481
247721
-10973.9
-227307
-405599
-547107
-655942
-735455
-786229
-807484
-798664
-757665
-692943
-632457
-613362
-674907
167157
530404
957419
1.44881e+06
1.98948e+06
2.54583e+06
3.09401e+06
3.62471e+06
4.14895e+06
4.67939e+06
5.2283e+06
5.80653e+06
6.4283e+06
7.09999e+06
7.83109e+06
8.61641e+06
9.43105e+06
1.02262e+07
1.09453e+07
1.1533e+07
1.19344e+07
1.20837e+07
1.19241e+07
1.15242e+07
1.11721e+07
1.10236e+07
1.09533e+07
1.08553e+07
1.06914e+07
1.05003e+07
1.02804e+07
9.9315e+06
9.46905e+06
8.59264e+06
6.94444e+06
5.54528e+06
4.93995e+06
4.31167e+06
3.58887e+06
2.90355e+06
2.28263e+06
1.72827e+06
1.24407e+06
821020
456825
145200
-119097
-337616
-516154
-657591
-766086
-843343
-891640
-908520
-893424
-844255
-769475
-695289
-665859
-724002
169075
539101
972879
1.471e+06
2.01352e+06
2.56878e+06
3.11003e+06
3.63288e+06
4.14831e+06
4.66995e+06
5.20825e+06
5.77502e+06
6.38151e+06
7.03441e+06
7.74316e+06
8.50376e+06
9.29785e+06
1.00814e+07
1.0803e+07
1.14087e+07
1.1848e+07
1.20633e+07
1.19799e+07
1.15766e+07
1.10842e+07
1.0804e+07
1.06812e+07
1.05746e+07
1.0417e+07
1.02364e+07
1.00285e+07
9.70983e+06
9.32778e+06
8.60007e+06
7.01182e+06
5.53338e+06
4.8923e+06
4.25701e+06
3.52202e+06
2.82823e+06
2.202e+06
1.64155e+06
1.1503e+06
720498
351340
35137.3
-231823
-452629
-633128
-774594
-882833
-957907
-1.00209e+06
-1.01635e+06
-995025
-937730
-849441
-761577
-721832
-774824
171994
545868
985423
1.48831e+06
2.0317e+06
2.582e+06
3.11538e+06
3.6294e+06
4.13507e+06
4.64611e+06
5.17477e+06
5.72813e+06
6.31858e+06
6.95176e+06
7.63738e+06
8.3743e+06
9.14628e+06
9.91656e+06
1.06364e+07
1.1255e+07
1.17266e+07
1.19982e+07
1.20016e+07
1.16589e+07
1.10853e+07
1.06532e+07
1.04565e+07
1.03252e+07
1.0171e+07
9.99674e+06
9.79372e+06
9.49388e+06
9.17745e+06
8.5767e+06
7.08938e+06
5.52639e+06
4.88915e+06
4.22896e+06
3.46724e+06
2.75526e+06
2.11666e+06
1.54847e+06
1.05117e+06
615800
240035
-80929.1
-350711
-573938
-756512
-898106
-1.0045e+06
-1.07745e+06
-1.11926e+06
-1.12925e+06
-1.10173e+06
-1.03635e+06
-936323
-833069
-781277
-829131
173902
552599
995020
1.50174e+06
2.04503e+06
2.58938e+06
3.11391e+06
3.61723e+06
4.11319e+06
4.61357e+06
5.12976e+06
5.66985e+06
6.24419e+06
6.85876e+06
7.52221e+06
8.2337e+06
8.98265e+06
9.73702e+06
1.04526e+07
1.10801e+07
1.15756e+07
1.18947e+07
1.19772e+07
1.17299e+07
1.11518e+07
1.05808e+07
1.02822e+07
1.01123e+07
9.95389e+06
9.78171e+06
9.55182e+06
9.33328e+06
9.02462e+06
8.5362e+06
7.1747e+06
5.52631e+06
4.84215e+06
4.17369e+06
3.39671e+06
2.67356e+06
2.02662e+06
1.45164e+06
945337
504077
122918
-202991
-477317
-701536
-886303
-1.02812e+06
-1.13276e+06
-1.20534e+06
-1.24317e+06
-1.24893e+06
-1.21527e+06
-1.1401e+06
-1.02838e+06
-908011
-842437
-885160
174868
557411
1.00364e+06
1.51223e+06
2.05347e+06
2.59092e+06
3.10567e+06
3.59825e+06
4.08261e+06
4.5724e+06
5.07614e+06
5.60196e+06
6.16038e+06
6.75534e+06
7.39581e+06
8.08285e+06
8.80801e+06
9.54485e+06
1.02536e+07
1.08855e+07
1.14009e+07
1.17577e+07
1.1907e+07
1.17619e+07
1.12457e+07
1.05807e+07
1.01624e+07
9.93859e+06
9.76625e+06
9.59071e+06
9.3769e+06
9.08534e+06
8.90985e+06
8.49074e+06
7.26228e+06
5.53348e+06
4.73889e+06
4.07948e+06
3.30455e+06
2.5776e+06
1.92705e+06
1.34719e+06
834168
385340
-1480.01
-332564
-610066
-837011
-1.02249e+06
-1.16463e+06
-1.26927e+06
-1.3382e+06
-1.37379e+06
-1.37366e+06
-1.3339e+06
-1.25071e+06
-1.12559e+06
-986398
-907062
-942912
175805
560255
1.00935e+06
1.51882e+06
2.05706e+06
2.58565e+06
3.08968e+06
3.5706e+06
4.0443e+06
4.52156e+06
5.01294e+06
5.52458e+06
6.0651e+06
6.64062e+06
7.25813e+06
7.92087e+06
8.62226e+06
9.34074e+06
1.0041e+07
1.06759e+07
1.12062e+07
1.15952e+07
1.17993e+07
1.17463e+07
1.1331e+07
1.06358e+07
1.00969e+07
9.80796e+06
9.60986e+06
9.42432e+06
9.16736e+06
8.9441e+06
8.73291e+06
8.43656e+06
7.35181e+06
5.55286e+06
4.68311e+06
4.01358e+06
3.22449e+06
2.48515e+06
1.82403e+06
1.23642e+06
717678
261030
-133148
-468112
-748949
-980352
-1.16506e+06
-1.30763e+06
-1.41068e+06
-1.47771e+06
-1.50941e+06
-1.50516e+06
-1.45935e+06
-1.36645e+06
-1.22796e+06
-1.06997e+06
-973397
-1.00238e+06
176773
562126
1.01212e+06
1.52052e+06
2.05285e+06
2.57264e+06
3.06399e+06
3.53423e+06
3.99537e+06
4.46022e+06
4.93727e+06
5.43378e+06
5.95754e+06
6.51357e+06
7.1083e+06
7.74679e+06
8.42465e+06
9.12489e+06
9.81412e+06
1.04504e+07
1.09923e+07
1.14062e+07
1.16574e+07
1.16837e+07
1.13811e+07
1.07208e+07
1.00823e+07
9.71835e+06
9.48405e+06
9.28189e+06
9.02855e+06
8.71615e+06
8.57399e+06
8.37188e+06
7.43866e+06
5.58569e+06
4.62434e+06
3.94114e+06
3.13771e+06
2.38735e+06
1.71514e+06
1.11806e+06
591786
128304
-270598
-611153
-897084
-1.12995e+06
-1.31563e+06
-1.4571e+06
-1.55866e+06
-1.62385e+06
-1.65174e+06
-1.64171e+06
-1.58988e+06
-1.48731e+06
-1.33374e+06
-1.15874e+06
-1.04319e+06
-1.06357e+06
176731
563012
1.01294e+06
1.51933e+06
2.04573e+06
2.55477e+06
3.03345e+06
3.4911e+06
3.93972e+06
4.39211e+06
4.85588e+06
5.33734e+06
5.84424e+06
6.38096e+06
6.95565e+06
7.57094e+06
8.22611e+06
8.90628e+06
9.58359e+06
1.02178e+07
1.07689e+07
1.12027e+07
1.14922e+07
1.15839e+07
1.13868e+07
1.08086e+07
1.01101e+07
9.66705e+06
9.3894e+06
9.14738e+06
8.84914e+06
8.59683e+06
8.42303e+06
8.334e+06
7.55248e+06
5.66802e+06
4.56525e+06
3.8639e+06
3.04722e+06
2.28422e+06
1.60041e+06
994698
459235
-9973.42
-416773
-761672
-1.05133e+06
-1.28581e+06
-1.4742e+06
-1.61469e+06
-1.71486e+06
-1.77662e+06
-1.80077e+06
-1.785e+06
-1.72548e+06
-1.61501e+06
-1.44815e+06
-1.25093e+06
-1.11644e+06
-1.12822e+06
176714
561949
1.01083e+06
1.51423e+06
2.03276e+06
2.53008e+06
2.99711e+06
3.44218e+06
3.8783e+06
4.31729e+06
4.76777e+06
5.23323e+06
5.72438e+06
6.24265e+06
6.79559e+06
7.38761e+06
8.01934e+06
8.67777e+06
9.3406e+06
9.96933e+06
1.05263e+07
1.0977e+07
1.12986e+07
1.14462e+07
1.13418e+07
1.08726e+07
1.01632e+07
9.64483e+06
9.32042e+06
9.05495e+06
8.70942e+06
8.3878e+06
8.27442e+06
8.25296e+06
7.62617e+06
5.72824e+06
4.50513e+06
3.77683e+06
2.94613e+06
2.17136e+06
1.47743e+06
861199
318677
-158065
-568708
-919661
-1.21325e+06
-1.45109e+06
-1.63912e+06
-1.77875e+06
-1.87761e+06
-1.93433e+06
-1.95308e+06
-1.93333e+06
-1.86615e+06
-1.74609e+06
-1.56422e+06
-1.34655e+06
-1.1914e+06
-1.19284e+06
176689
560893
1.00874e+06
1.50914e+06
2.01884e+06
2.50445e+06
2.95983e+06
3.39134e+06
3.81591e+06
4.24248e+06
4.67877e+06
5.13014e+06
5.60451e+06
6.10445e+06
6.63742e+06
7.20721e+06
7.8154e+06
8.45292e+06
9.10031e+06
9.72267e+06
1.0283e+07
1.07481e+07
1.10953e+07
1.12891e+07
1.12642e+07
1.09082e+07
1.02332e+07
9.65366e+06
9.2807e+06
8.97367e+06
8.61825e+06
8.29116e+06
8.15099e+06
8.17832e+06
7.69836e+06
5.81737e+06
4.45361e+06
3.68756e+06
2.84038e+06
2.05433e+06
1.34985e+06
724024
171488
-311683
-730820
-1.08663e+06
-1.38282e+06
-1.62421e+06
-1.81365e+06
-1.95254e+06
-2.04856e+06
-2.10372e+06
-2.11717e+06
-2.09011e+06
-2.01706e+06
-1.88573e+06
-1.69064e+06
-1.44909e+06
-1.2698e+06
-1.26092e+06
175690
557862
1.00272e+06
1.49625e+06
1.99715e+06
2.47009e+06
2.91188e+06
3.3318e+06
3.74295e+06
4.15618e+06