/*--------------------------------*- C++ -*----------------------------------*\
| =========                 |                                                 |
| \\      /  F ield         | OpenFOAM: The Open Source CFD Toolbox           |
|  \\    /   O peration     | Version:  2.4.0                                 |
|   \\  /    A nd           | Web:      www.OpenFOAM.org                      |
|    \\/     M anipulation  |                                                 |
\*---------------------------------------------------------------------------*/
FoamFile
{
    version     2.0;
    format      ascii;
    class       volScalarField;
    location    "3000";
    object      nuTilda;
}
// * * * * * * * * * * * * * * * * * * * * * * * * * * * * * * * * * * * * * //

dimensions      [0 2 -1 0 0 0 0];

internalField   nonuniform List<scalar> 
38400
(
2.68451e-07
3.06202e-07
3.1778e-07
3.25223e-07
3.34085e-07
3.42468e-07
3.50314e-07
3.5968e-07
3.71702e-07
3.86533e-07
4.0406e-07
4.23442e-07
4.44123e-07
4.65815e-07
4.88545e-07
5.12123e-07
5.36625e-07
5.57887e-07
5.78919e-07
6.03003e-07
6.28277e-07
6.53346e-07
6.75558e-07
6.88254e-07
6.8584e-07
6.87683e-07
7.03288e-07
7.28917e-07
7.56558e-07
7.91952e-07
8.18552e-07
8.75837e-07
2.68352e-07
3.06027e-07
3.17083e-07
3.23695e-07
3.32112e-07
3.40329e-07
3.48664e-07
3.58973e-07
3.71702e-07
3.86908e-07
4.04306e-07
4.23228e-07
4.43409e-07
4.64749e-07
4.87203e-07
5.10405e-07
5.34506e-07
5.57433e-07
5.76929e-07
6.00423e-07
6.25206e-07
6.50046e-07
6.72512e-07
6.87334e-07
6.87469e-07
6.87586e-07
7.00422e-07
7.23976e-07
7.50315e-07
7.84543e-07
8.10326e-07
8.66225e-07
2.68177e-07
3.05632e-07
3.15401e-07
3.20738e-07
3.2872e-07
3.37001e-07
3.45936e-07
3.571e-07
3.70326e-07
3.85634e-07
4.02763e-07
4.21295e-07
4.41068e-07
4.62001e-07
4.83942e-07
5.06653e-07
5.30249e-07
5.55011e-07
5.73385e-07
5.95423e-07
6.19375e-07
6.43832e-07
6.66699e-07
6.84441e-07
6.90018e-07
6.88787e-07
6.96742e-07
7.16274e-07
7.40265e-07
7.72537e-07
7.97004e-07
8.50593e-07
2.67972e-07
3.04705e-07
3.1254e-07
3.16558e-07
3.24309e-07
3.3286e-07
3.42228e-07
3.53836e-07
3.67196e-07
3.82356e-07
3.99176e-07
4.17358e-07
4.3671e-07
4.57112e-07
4.78415e-07
5.00527e-07
5.23535e-07
5.47777e-07
5.76403e-07
5.88487e-07
6.11189e-07
6.3506e-07
6.58307e-07
6.78763e-07
6.91085e-07
6.92435e-07
6.95234e-07
7.08477e-07
7.28565e-07
7.57787e-07
7.80575e-07
8.31142e-07
2.67774e-07
3.02759e-07
3.08539e-07
3.11367e-07
3.18965e-07
3.27784e-07
3.37354e-07
3.4904e-07
3.62259e-07
3.77105e-07
3.93518e-07
4.11218e-07
4.30024e-07
4.49788e-07
4.70397e-07
4.91834e-07
5.14161e-07
5.37693e-07
5.62651e-07
5.80497e-07
6.0125e-07
6.24066e-07
6.4729e-07
6.69577e-07
6.87515e-07
6.96985e-07
6.9858e-07
7.04219e-07
7.18324e-07
7.42328e-07
7.62817e-07
8.09437e-07
2.67529e-07
2.99461e-07
3.03543e-07
3.05131e-07
3.12527e-07
3.21499e-07
3.31035e-07
3.42519e-07
3.55384e-07
3.6978e-07
3.85696e-07
4.02835e-07
4.21021e-07
4.40105e-07
4.59997e-07
4.80701e-07
5.0229e-07
5.25015e-07
5.48756e-07
5.72474e-07
5.9091e-07
6.11738e-07
6.3407e-07
6.56995e-07
6.78111e-07
6.9565e-07
7.0465e-07
7.07232e-07
7.13996e-07
7.29626e-07
7.46625e-07
7.86811e-07
2.67039e-07
2.94917e-07
2.97444e-07
2.97628e-07
3.04799e-07
3.13783e-07
3.23072e-07
3.34164e-07
3.46539e-07
3.604e-07
3.75767e-07
3.92303e-07
4.09847e-07
4.28244e-07
4.47403e-07
4.67356e-07
4.88163e-07
5.10052e-07
5.32903e-07
5.56594e-07
5.80173e-07
5.99814e-07
6.20003e-07
6.42066e-07
6.64079e-07
6.85787e-07
7.0317e-07
7.14537e-07
7.19527e-07
7.25317e-07
7.36951e-07
7.65806e-07
2.65955e-07
2.89397e-07
2.89933e-07
2.88667e-07
2.95631e-07
3.04455e-07
3.13314e-07
3.23893e-07
3.35694e-07
3.48978e-07
3.63762e-07
3.79683e-07
3.96583e-07
4.14292e-07
4.32734e-07
4.51934e-07
4.71947e-07
4.92988e-07
5.14951e-07
5.37787e-07
5.61321e-07
5.85176e-07
6.06988e-07
6.26986e-07
6.47838e-07
6.70309e-07
6.91181e-07
7.11646e-07
7.25475e-07
7.33694e-07
7.40989e-07
7.52058e-07
2.63837e-07
2.82702e-07
2.80713e-07
2.78009e-07
2.84778e-07
2.93255e-07
3.01546e-07
3.11531e-07
3.22719e-07
3.35398e-07
3.49587e-07
3.64888e-07
3.81141e-07
3.98178e-07
4.15918e-07
4.34375e-07
4.53608e-07
4.73807e-07
4.94885e-07
5.16804e-07
5.3946e-07
5.63001e-07
5.86803e-07
6.10637e-07
6.3196e-07
6.53303e-07
6.74002e-07
6.97302e-07
7.16481e-07
7.37577e-07
7.49554e-07
7.56361e-07
2.60164e-07
2.74205e-07
2.69385e-07
2.65272e-07
2.71823e-07
2.79804e-07
2.8744e-07
2.96799e-07
3.0735e-07
3.19411e-07
3.3299e-07
3.47657e-07
3.63261e-07
3.79628e-07
3.96667e-07
4.14394e-07
4.32858e-07
4.52231e-07
4.72439e-07
4.93445e-07
5.15151e-07
5.37767e-07
5.60903e-07
5.84938e-07
6.08581e-07
6.33075e-07
6.55168e-07
6.78802e-07
6.98459e-07
7.24617e-07
7.39602e-07
7.68127e-07
2.54511e-07
2.6308e-07
2.55362e-07
2.49998e-07
2.56315e-07
2.63724e-07
2.70688e-07
2.79412e-07
2.89313e-07
3.00738e-07
3.13674e-07
3.27673e-07
3.42592e-07
3.58251e-07
3.74564e-07
3.9154e-07
4.09214e-07
4.2776e-07
4.47092e-07
4.6719e-07
4.87938e-07
5.09562e-07
5.31702e-07
5.5482e-07
5.77901e-07
6.025e-07
6.25899e-07
6.52078e-07
6.73974e-07
7.02614e-07
7.18092e-07
7.57e-07
2.46677e-07
2.483e-07
2.3812e-07
2.31867e-07
2.37941e-07
2.44781e-07
2.51113e-07
2.59216e-07
2.68465e-07
2.79221e-07
2.91457e-07
3.0472e-07
3.18876e-07
3.33746e-07
3.49252e-07
3.65394e-07
3.82207e-07
3.99854e-07
4.18252e-07
4.37381e-07
4.5713e-07
4.77711e-07
4.98781e-07
5.20809e-07
5.4281e-07
5.66407e-07
5.89024e-07
6.14841e-07
6.36811e-07
6.66347e-07
6.83111e-07
7.26713e-07
2.35692e-07
2.29003e-07
2.17343e-07
2.1068e-07
2.16486e-07
2.228e-07
2.28574e-07
2.36091e-07
2.44694e-07
2.54753e-07
2.66235e-07
2.78685e-07
2.91984e-07
3.0596e-07
3.2054e-07
3.35723e-07
3.51547e-07
3.68159e-07
3.8549e-07
4.03516e-07
4.22131e-07
4.41545e-07
4.61412e-07
4.82211e-07
5.02966e-07
5.25293e-07
5.46645e-07
5.71231e-07
5.9205e-07
6.20564e-07
6.36521e-07
6.79909e-07
2.19159e-07
2.04785e-07
1.92771e-07
1.86148e-07
1.91613e-07
1.97425e-07
2.02703e-07
2.09649e-07
2.17607e-07
2.26946e-07
2.37623e-07
2.492e-07
2.61568e-07
2.74564e-07
2.88116e-07
3.02229e-07
3.16933e-07
3.3237e-07
3.48475e-07
3.65229e-07
3.82528e-07
4.00585e-07
4.19053e-07
4.38414e-07
4.57715e-07
4.78538e-07
4.98378e-07
5.2139e-07
5.40676e-07
5.67548e-07
5.8205e-07
6.2345e-07
1.94918e-07
1.75693e-07
1.64261e-07
1.5806e-07
1.63043e-07
1.68293e-07
1.73051e-07
1.79354e-07
1.86588e-07
1.95104e-07
2.0486e-07
2.15449e-07
2.26771e-07
2.38673e-07
2.51087e-07
2.64016e-07
2.77483e-07
2.91622e-07
3.06365e-07
3.21701e-07
3.37526e-07
3.54044e-07
3.70929e-07
3.8864e-07
4.06267e-07
4.25337e-07
4.43428e-07
4.64558e-07
4.82057e-07
5.06866e-07
5.19689e-07
5.58277e-07
1.62806e-07
1.42512e-07
1.32417e-07
1.26985e-07
1.31284e-07
1.35804e-07
1.39903e-07
1.45363e-07
1.51652e-07
1.59085e-07
1.67634e-07
1.76943e-07
1.86927e-07
1.97451e-07
2.08453e-07
2.19933e-07
2.31911e-07
2.44503e-07
2.57646e-07
2.71329e-07
2.85452e-07
3.002e-07
3.15272e-07
3.31091e-07
3.4681e-07
3.63851e-07
3.7995e-07
3.98868e-07
4.14343e-07
4.36657e-07
4.47664e-07
4.82682e-07
1.25172e-07
1.07137e-07
9.90011e-08
9.46476e-08
9.80535e-08
1.01635e-07
1.04887e-07
1.09242e-07
1.14279e-07
1.20264e-07
1.27183e-07
1.34754e-07
1.42916e-07
1.51561e-07
1.6064e-07
1.70155e-07
1.80124e-07
1.90644e-07
2.01663e-07
2.13171e-07
2.25081e-07
2.37551e-07
2.50316e-07
2.63748e-07
2.77094e-07
2.91609e-07
3.0528e-07
3.21457e-07
3.34535e-07
3.53726e-07
3.62734e-07
3.93188e-07
8.58766e-08
7.22011e-08
6.64222e-08
6.33437e-08
6.57261e-08
6.82259e-08
7.04969e-08
7.35536e-08
7.71015e-08
8.13361e-08
8.62552e-08
9.16638e-08
9.75231e-08
1.03759e-07
1.10341e-07
1.17273e-07
1.2457e-07
1.32308e-07
1.4045e-07
1.48992e-07
1.5787e-07
1.67203e-07
1.76792e-07
1.86924e-07
1.97011e-07
2.08037e-07
2.1841e-07
2.30789e-07
2.40697e-07
2.5552e-07
2.62133e-07
2.86004e-07
4.87388e-08
4.04316e-08
3.70737e-08
3.52909e-08
3.66601e-08
3.80936e-08
3.93959e-08
4.11556e-08
4.32037e-08
4.5657e-08
4.85176e-08
5.16748e-08
5.5109e-08
5.87793e-08
6.26698e-08
6.67852e-08
7.11363e-08
7.5771e-08
8.06697e-08
8.58323e-08
9.12215e-08
9.69136e-08
1.02785e-07
1.09017e-07
1.15241e-07
1.22082e-07
1.28521e-07
1.36271e-07
1.42429e-07
1.51813e-07
1.5581e-07
1.71173e-07
1.57304e-08
1.29207e-08
1.18136e-08
1.12279e-08
1.1676e-08
1.21451e-08
1.25717e-08
1.31497e-08
1.38243e-08
1.46351e-08
1.55842e-08
1.66358e-08
1.77847e-08
1.90182e-08
2.0332e-08
2.17287e-08
2.3213e-08
2.48026e-08
2.64919e-08
2.82825e-08
3.01622e-08
3.21594e-08
3.4231e-08
3.64439e-08
3.86645e-08
4.11228e-08
4.34424e-08
4.6263e-08
4.84938e-08
5.1959e-08
5.33732e-08
5.91692e-08
6.01863e-07
7.98258e-07
8.51647e-07
8.86201e-07
9.20249e-07
9.54477e-07
9.87754e-07
1.02395e-06
1.06538e-06
1.11207e-06
1.16385e-06
1.21901e-06
1.27658e-06
1.33628e-06
1.39855e-06
1.46341e-06
1.53168e-06
1.55903e-06
1.5855e-06
1.64077e-06
1.71287e-06
1.79662e-06
1.88827e-06
1.98537e-06
2.08321e-06
2.19695e-06
2.32318e-06
2.47095e-06
2.60349e-06
2.76472e-06
2.87422e-06
3.12418e-06
6.01737e-07
7.98301e-07
8.52301e-07
8.87148e-07
9.21388e-07
9.55634e-07
9.89788e-07
1.02762e-06
1.07023e-06
1.11755e-06
1.16899e-06
1.22323e-06
1.27988e-06
1.33899e-06
1.40075e-06
1.46477e-06
1.53185e-06
1.57763e-06
1.58847e-06
1.63927e-06
1.70755e-06
1.78801e-06
1.87623e-06
1.97013e-06
2.06462e-06
2.17168e-06
2.28976e-06
2.43232e-06
2.56332e-06
2.72498e-06
2.83211e-06
3.07857e-06
6.01476e-07
7.98692e-07
8.53367e-07
8.87776e-07
9.21784e-07
9.56164e-07
9.91238e-07
1.0304e-06
1.0736e-06
1.1208e-06
1.17153e-06
1.22498e-06
1.28091e-06
1.33933e-06
1.4001e-06
1.46308e-06
1.52878e-06
1.59659e-06
1.59658e-06
1.63559e-06
1.69707e-06
1.77213e-06
1.85529e-06
1.94458e-06
2.03496e-06
2.13348e-06
2.23928e-06
2.36849e-06
2.49281e-06
2.65494e-06
2.75898e-06
3.00335e-06
6.01076e-07
7.99712e-07
8.54003e-07
8.86757e-07
9.20105e-07
9.54584e-07
9.89986e-07
1.02949e-06
1.07241e-06
1.11887e-06
1.16871e-06
1.22139e-06
1.27651e-06
1.33392e-06
1.39348e-06
1.45521e-06
1.51956e-06
1.58704e-06
1.69234e-06
1.63399e-06
1.68429e-06
1.75135e-06
1.82834e-06
1.91245e-06
1.99866e-06
2.09034e-06
2.18515e-06
2.29776e-06
2.4075e-06
2.55939e-06
2.65835e-06
2.90533e-06
6.00556e-07
8.00918e-07
8.53164e-07
8.83144e-07
9.15248e-07
9.49439e-07
9.84452e-07
1.02341e-06
1.0654e-06
1.11069e-06
1.15937e-06
1.21089e-06
1.26484e-06
1.32096e-06
1.37913e-06
1.43951e-06
1.50238e-06
1.56851e-06
1.6418e-06
1.642e-06
1.67431e-06
1.72912e-06
1.79759e-06
1.87544e-06
1.95698e-06
2.04403e-06
2.13105e-06
2.23104e-06
2.32697e-06
2.45695e-06
2.54548e-06
2.78428e-06
5.99952e-07
8.01068e-07
8.50031e-07
8.75886e-07
9.0604e-07
9.39461e-07
9.73464e-07
1.0112e-06
1.05175e-06
1.09556e-06
1.14284e-06
1.19295e-06
1.24548e-06
1.30015e-06
1.35684e-06
1.41569e-06
1.47701e-06
1.5414e-06
1.60879e-06
1.66993e-06
1.67913e-06
1.71354e-06
1.7679e-06
1.83637e-06
1.91141e-06
1.99384e-06
2.0758e-06
2.1675e-06
2.25392e-06
2.36662e-06
2.44544e-06
2.64872e-06
5.99292e-07
7.99153e-07
8.43462e-07
8.63732e-07
8.91568e-07
9.23876e-07
9.56362e-07
9.9244e-07
1.03126e-06
1.0734e-06
1.11913e-06
1.16772e-06
1.21873e-06
1.27183e-06
1.32691e-06
1.38415e-06
1.44378e-06
1.50637e-06
1.57162e-06
1.63891e-06
1.70012e-06
1.72091e-06
1.7515e-06
1.80292e-06
1.86663e-06
1.94154e-06
2.01812e-06
2.10454e-06
2.18394e-06
2.28574e-06
2.35764e-06
2.52833e-06
5.98492e-07
7.94687e-07
8.31866e-07
8.45784e-07
8.71356e-07
9.02215e-07
9.32784e-07
9.66926e-07
1.00385e-06
1.04424e-06
1.08836e-06
1.13537e-06
1.18481e-06
1.2363e-06
1.28974e-06
1.34526e-06
1.4031e-06
1.46381e-06
1.52708e-06
1.59279e-06
1.66012e-06
1.72423e-06
1.76698e-06
1.79343e-06
1.83613e-06
1.89584e-06
1.96201e-06
2.04178e-06
2.11514e-06
2.20956e-06
2.27496e-06
2.426e-06
5.97026e-07
7.86409e-07
8.13882e-07
8.21305e-07
8.44819e-07
8.73851e-07
9.02206e-07
9.34271e-07
9.69224e-07
1.00783e-06
1.05032e-06
1.09572e-06
1.14358e-06
1.19347e-06
1.24525e-06
1.29904e-06
1.35505e-06
1.41381e-06
1.47505e-06
1.53868e-06
1.60441e-06
1.67227e-06
1.73893e-06
1.79992e-06
1.84069e-06
1.87866e-06
1.92478e-06
1.98955e-06
2.05174e-06
2.13903e-06
2.1967e-06
2.33366e-06
5.93555e-07
7.72057e-07
7.88087e-07
7.89181e-07
8.10792e-07
8.37689e-07
8.63673e-07
8.93625e-07
9.26619e-07
9.63447e-07
1.00429e-06
1.04809e-06
1.09436e-06
1.14267e-06
1.1928e-06
1.24487e-06
1.29905e-06
1.35586e-06
1.41505e-06
1.47654e-06
1.54007e-06
1.6061e-06
1.6735e-06
1.74262e-06
1.80838e-06
1.8723e-06
1.92286e-06
1.97304e-06
2.01688e-06
2.08922e-06
2.13273e-06
2.25586e-06
5.86136e-07
7.48693e-07
7.52389e-07
7.47789e-07
7.67673e-07
7.92337e-07
8.15988e-07
8.43887e-07
8.74954e-07
9.10007e-07
9.4917e-07
9.91316e-07
1.03597e-06
1.08264e-06
1.13113e-06
1.18147e-06
1.23384e-06
1.28873e-06
1.34589e-06
1.40525e-06
1.46653e-06
1.53026e-06
1.5955e-06
1.66333e-06
1.73094e-06
1.80189e-06
1.86846e-06
1.93986e-06
1.99799e-06
2.07154e-06
2.10712e-06
2.21139e-06
5.72966e-07
7.12442e-07
7.04654e-07
6.95669e-07
7.14053e-07
7.36603e-07
7.58109e-07
7.84056e-07
8.13215e-07
8.46435e-07
8.83788e-07
9.24119e-07
9.66967e-07
1.01184e-06
1.05852e-06
1.10702e-06
1.15749e-06
1.21039e-06
1.26549e-06
1.32271e-06
1.38175e-06
1.44314e-06
1.50599e-06
1.57141e-06
1.63691e-06
1.7065e-06
1.77363e-06
1.84853e-06
1.91346e-06
1.99691e-06
2.04679e-06
2.16599e-06
5.51191e-07
6.59961e-07
6.437e-07
6.32019e-07
6.49047e-07
6.69653e-07
6.89224e-07
7.13281e-07
7.40492e-07
7.71728e-07
8.07021e-07
8.4523e-07
8.85926e-07
9.28631e-07
9.7312e-07
1.01941e-06
1.06763e-06
1.11824e-06
1.171e-06
1.22584e-06
1.28244e-06
1.34134e-06
1.40164e-06
1.46446e-06
1.52733e-06
1.59433e-06
1.65905e-06
1.73195e-06
1.79556e-06
1.87858e-06
1.92986e-06
2.05356e-06
5.15806e-07
5.90427e-07
5.69427e-07
5.56553e-07
5.72159e-07
5.90823e-07
6.085e-07
6.30547e-07
6.55604e-07
6.8454e-07
7.17363e-07
7.52975e-07
7.90994e-07
8.30961e-07
8.72663e-07
9.16125e-07
9.61454e-07
1.0091e-06
1.05887e-06
1.11066e-06
1.16419e-06
1.22e-06
1.27717e-06
1.33685e-06
1.39659e-06
1.46041e-06
1.52197e-06
1.5917e-06
1.65225e-06
1.73219e-06
1.78082e-06
1.90182e-06
4.63473e-07
5.05779e-07
4.83153e-07
4.7022e-07
4.84115e-07
5.00531e-07
5.16039e-07
5.35627e-07
5.57997e-07
5.83976e-07
6.13571e-07
6.4577e-07
6.80236e-07
7.16555e-07
7.54529e-07
7.94181e-07
8.35613e-07
8.79242e-07
9.24898e-07
9.72495e-07
1.02178e-06
1.07326e-06
1.12609e-06
1.18137e-06
1.23674e-06
1.29609e-06
1.35327e-06
1.41846e-06
1.47466e-06
1.54989e-06
1.59439e-06
1.70978e-06
3.95034e-07
4.10474e-07
3.8866e-07
3.76612e-07
3.88392e-07
4.02081e-07
4.14955e-07
4.31425e-07
4.50322e-07
4.72404e-07
4.97678e-07
5.25262e-07
5.54884e-07
5.86187e-07
6.19003e-07
6.53353e-07
6.89326e-07
7.27293e-07
7.67105e-07
8.08701e-07
8.51846e-07
8.97016e-07
9.43435e-07
9.92139e-07
1.04093e-06
1.09344e-06
1.14394e-06
1.20192e-06
1.25147e-06
1.31889e-06
1.35736e-06
1.46213e-06
3.14268e-07
3.10582e-07
2.91628e-07
2.81348e-07
2.9065e-07
3.01229e-07
3.11111e-07
3.23921e-07
3.38679e-07
3.5603e-07
3.75982e-07
3.9782e-07
4.21344e-07
4.46271e-07
4.72469e-07
4.99957e-07
5.28804e-07
5.59313e-07
5.91363e-07
6.24912e-07
6.59761e-07
6.96316e-07
7.33916e-07
7.73463e-07
8.13067e-07
8.55862e-07
8.9686e-07
9.44355e-07
9.84418e-07
1.04007e-06
1.07033e-06
1.15778e-06
2.2501e-07
2.10748e-07
1.96371e-07
1.8865e-07
1.95177e-07
2.02393e-07
2.09068e-07
2.17838e-07
2.27971e-07
2.39947e-07
2.53767e-07
2.68914e-07
2.85257e-07
3.02594e-07
3.20834e-07
3.39989e-07
3.60101e-07
3.81381e-07
4.03736e-07
4.27142e-07
4.51447e-07
4.7695e-07
5.03158e-07
5.30752e-07
5.58322e-07
5.88214e-07
6.1667e-07
6.49946e-07
6.77541e-07
7.16782e-07
7.36869e-07
7.98964e-07
1.33296e-07
1.18534e-07
1.09745e-07
1.05047e-07
1.08819e-07
1.12871e-07
1.1658e-07
1.21514e-07
1.27224e-07
1.34004e-07
1.41846e-07
1.50445e-07
1.59731e-07
1.69583e-07
1.7995e-07
1.90836e-07
2.02261e-07
2.14342e-07
2.27021e-07
2.40284e-07
2.54036e-07
2.68454e-07
2.83239e-07
2.98806e-07
3.14302e-07
3.31148e-07
3.47057e-07
3.65834e-07
3.811e-07
4.03356e-07
4.13983e-07
4.49338e-07
4.41234e-08
3.75108e-08
3.45832e-08
3.3021e-08
3.42389e-08
3.55188e-08
3.66809e-08
3.82403e-08
4.00468e-08
4.21976e-08
4.46897e-08
4.74225e-08
5.03746e-08
5.35071e-08
5.68033e-08
6.02638e-08
6.38948e-08
6.77318e-08
7.17554e-08
7.59616e-08
8.03182e-08
8.48821e-08
8.95545e-08
9.44745e-08
9.93579e-08
1.04678e-07
1.09671e-07
1.15607e-07
1.20358e-07
1.27424e-07
1.30609e-07
1.4187e-07
7.48543e-07
1.1345e-06
1.25746e-06
1.34085e-06
1.4073e-06
1.4737e-06
1.54109e-06
1.61467e-06
1.69829e-06
1.79037e-06
1.89169e-06
2.00129e-06
2.1188e-06
2.24447e-06
2.37954e-06
2.5228e-06
2.67411e-06
2.82533e-06
2.98301e-06
3.15618e-06
3.33963e-06
3.53129e-06
3.73093e-06
3.93674e-06
4.14455e-06
4.36415e-06
4.58895e-06
4.8287e-06
5.05704e-06
5.31905e-06
5.5278e-06
5.92941e-06
7.48314e-07
1.13463e-06
1.25868e-06
1.3425e-06
1.41005e-06
1.47801e-06
1.54896e-06
1.62659e-06
1.71235e-06
1.8053e-06
1.9054e-06
2.0122e-06
2.12653e-06
2.24974e-06
2.38263e-06
2.52287e-06
2.67117e-06
2.82454e-06
2.97868e-06
3.1487e-06
3.32868e-06
3.51761e-06
3.71363e-06
3.91568e-06
4.1199e-06
4.33478e-06
4.5538e-06
4.78888e-06
5.01321e-06
5.27174e-06
5.47615e-06
5.87088e-06
7.47848e-07
1.13555e-06
1.26115e-06
1.34517e-06
1.41473e-06
1.48577e-06
1.56023e-06
1.64057e-06
1.72667e-06
1.81835e-06
1.91581e-06
2.01959e-06
2.13073e-06
2.25057e-06
2.3792e-06
2.51539e-06
2.65971e-06
2.81465e-06
2.96397e-06
3.12766e-06
3.30207e-06
3.48585e-06
3.67636e-06
3.87304e-06
4.07204e-06
4.28042e-06
4.49132e-06
4.71843e-06
4.93582e-06
5.18921e-06
5.38719e-06
5.77244e-06
7.47172e-07
1.13784e-06
1.26474e-06
1.3493e-06
1.42123e-06
1.49487e-06
1.5705e-06
1.6507e-06
1.73495e-06
1.82376e-06
1.91796e-06
2.01845e-06
2.12581e-06
2.24097e-06
2.36412e-06
2.49513e-06
2.63447e-06
2.78444e-06
2.94998e-06
3.08957e-06
3.25685e-06
3.4341e-06
3.61822e-06
3.80887e-06
4.00197e-06
4.2037e-06
4.40635e-06
4.62431e-06
4.83232e-06
5.07753e-06
5.26779e-06
5.64346e-06
7.4634e-07
1.14126e-06
1.26985e-06
1.35503e-06
1.42733e-06
1.50108e-06
1.57534e-06
1.65321e-06
1.73424e-06
1.81929e-06
1.90956e-06
2.00576e-06
2.10827e-06
2.21779e-06
2.33472e-06
2.45953e-06
2.59275e-06
2.73629e-06
2.88948e-06
3.03514e-06
3.19349e-06
3.36293e-06
3.53989e-06
3.72401e-06
3.91081e-06
4.1062e-06
4.30125e-06
4.51092e-06
4.70963e-06
4.94411e-06
5.12521e-06
5.48885e-06
7.45396e-07
1.14511e-06
1.27701e-06
1.35966e-06
1.42874e-06
1.50014e-06
1.57123e-06
1.64539e-06
1.7223e-06
1.80308e-06
1.88907e-06
1.98059e-06
2.07785e-06
2.18138e-06
2.2917e-06
2.40959e-06
2.53574e-06
2.67181e-06
2.81681e-06
2.96782e-06
3.11557e-06
3.27519e-06
3.44359e-06
3.62029e-06
3.8002e-06
3.98916e-06
4.17721e-06
4.3796e-06
4.57e-06
4.79505e-06
4.96719e-06
5.31353e-06
7.44422e-07
1.15003e-06
1.28384e-06
1.35853e-06
1.42166e-06
1.48929e-06
1.55615e-06
1.62589e-06
1.69835e-06
1.77478e-06
1.85649e-06
1.9434e-06
2.03553e-06
2.13319e-06
2.23692e-06
2.34762e-06
2.46613e-06
2.59404e-06
2.73072e-06
2.87539e-06
3.02578e-06
3.176e-06
3.33355e-06
3.50094e-06
3.67269e-06
3.8544e-06
4.03529e-06
4.23098e-06
4.41361e-06
4.63074e-06
4.79456e-06
5.12515e-06
7.43461e-07
1.15686e-06
1.28528e-06
1.34775e-06
1.40397e-06
1.46712e-06
1.52915e-06
1.5942e-06
1.6622e-06
1.73443e-06
1.8121e-06
1.89474e-06
1.98214e-06
2.0744e-06
2.17196e-06
2.2757e-06
2.38654e-06
2.50601e-06
2.63384e-06
2.76971e-06
2.913e-06
3.06325e-06
3.21535e-06
3.3713e-06
3.53259e-06
3.70513e-06
3.87753e-06
4.06594e-06
4.24083e-06
4.45067e-06
4.60619e-06
4.92418e-06
7.4207e-07
1.16266e-06
1.2765e-06
1.32483e-06
1.37426e-06
1.43245e-06
1.48935e-06
1.5497e-06
1.6134e-06
1.68173e-06
1.75569e-06
1.83449e-06
1.91773e-06
2.00525e-06
2.09735e-06
2.1948e-06
2.29847e-06
2.40983e-06
2.5288e-06
2.65535e-06
2.78921e-06
2.93111e-06
3.07871e-06
3.23234e-06
3.38536e-06
3.54681e-06
3.7085e-06
3.88749e-06
4.05324e-06
4.25536e-06
4.40212e-06
4.70842e-06
7.38898e-07
1.16131e-06
1.25349e-06
1.2872e-06
1.33033e-06
1.38326e-06
1.43498e-06
1.49083e-06
1.55055e-06
1.61534e-06
1.68598e-06
1.76144e-06
1.84111e-06
1.92467e-06
2.01219e-06
2.1043e-06
2.20174e-06
2.30586e-06
2.41666e-06
2.53423e-06
2.65847e-06
2.79038e-06
2.92838e-06
3.07385e-06
3.22184e-06
3.37863e-06
3.53243e-06
3.70098e-06
3.85581e-06
4.04795e-06
4.18457e-06
4.47824e-06
7.32628e-07
1.14553e-06
1.21118e-06
1.23093e-06
1.26844e-06
1.31618e-06
1.36297e-06
1.41469e-06
1.47081e-06
1.53241e-06
1.60011e-06
1.67267e-06
1.74936e-06
1.82967e-06
1.91352e-06
2.00134e-06
2.09374e-06
2.19191e-06
2.2958e-06
2.40552e-06
2.52098e-06
2.6433e-06
2.77114e-06
2.90623e-06
3.04439e-06
3.19211e-06
3.3385e-06
3.50042e-06
3.64812e-06
3.83095e-06
3.958e-06
4.2361e-06
7.23596e-07
1.10636e-06
1.14396e-06
1.15174e-06
1.18458e-06
1.22749e-06
1.26974e-06
1.31761e-06
1.37027e-06
1.42879e-06
1.49361e-06
1.56336e-06
1.63727e-06
1.7147e-06
1.79544e-06
1.87976e-06
1.96813e-06
2.0616e-06
2.16002e-06
2.26339e-06
2.37161e-06
2.48571e-06
2.60447e-06
2.72966e-06
2.85752e-06
2.99439e-06
3.13031e-06
3.28155e-06
3.41988e-06
3.59239e-06
3.7124e-06
3.97592e-06
7.09539e-07
1.03573e-06
1.04873e-06
1.04738e-06
1.07639e-06
1.11475e-06
1.15259e-06
1.19649e-06
1.24536e-06
1.30026e-06
1.36154e-06
1.42779e-06
1.49822e-06
1.57218e-06
1.64936e-06
1.72994e-06
1.81427e-06
1.9033e-06
1.99679e-06
2.09464e-06
2.19663e-06
2.30369e-06
2.41461e-06
2.53103e-06
2.64943e-06
2.77586e-06
2.90106e-06
3.04043e-06
3.16767e-06
3.32698e-06
3.43751e-06
3.68168e-06
6.8e-07
9.31706e-07
9.26596e-07
9.18889e-07
9.4442e-07
9.7803e-07
1.0111e-06
1.05031e-06
1.09439e-06
1.1444e-06
1.20062e-06
1.26163e-06
1.32676e-06
1.39533e-06
1.46703e-06
1.54199e-06
1.62048e-06
1.70336e-06
1.79039e-06
1.88138e-06
1.97604e-06
2.07521e-06
2.17763e-06
2.28487e-06
2.39347e-06
2.50921e-06
2.62324e-06
2.75026e-06
2.86541e-06
3.0104e-06
3.10949e-06
3.33165e-06
6.26314e-07
7.98926e-07
7.82305e-07
7.70638e-07
7.92542e-07
8.20799e-07
8.48393e-07
8.81803e-07
9.1965e-07
9.62992e-07
1.01201e-06
1.06539e-06
1.12254e-06
1.18285e-06
1.24603e-06
1.31218e-06
1.38153e-06
1.45482e-06
1.53182e-06
1.61237e-06
1.69616e-06
1.78395e-06
1.87453e-06
1.96938e-06
2.06518e-06
2.16739e-06
2.26754e-06
2.37967e-06
2.48009e-06
2.60835e-06
2.69313e-06
2.89007e-06
5.47349e-07
6.45879e-07
6.23676e-07
6.10371e-07
6.28257e-07
6.50546e-07
6.72039e-07
6.98617e-07
7.28905e-07
7.6388e-07
8.03646e-07
8.47015e-07
8.93526e-07
9.42669e-07
9.94194e-07
1.04816e-06
1.10474e-06
1.16455e-06
1.22738e-06
1.29311e-06
1.36144e-06
1.43305e-06
1.50687e-06
1.58424e-06
1.6622e-06
1.74564e-06
1.8269e-06
1.91867e-06
1.9996e-06
2.10522e-06
2.17176e-06
2.33482e-06
4.46176e-07
4.85049e-07
4.62467e-07
4.49736e-07
4.6335e-07
4.79544e-07
4.94893e-07
5.14295e-07
5.36495e-07
5.62321e-07
5.91799e-07
6.23943e-07
6.58421e-07
6.94829e-07
7.32973e-07
7.72883e-07
8.14671e-07
8.5877e-07
9.05018e-07
9.53335e-07
1.00347e-06
1.05596e-06
1.10993e-06
1.16653e-06
1.22332e-06
1.28432e-06
1.34322e-06
1.41046e-06
1.46856e-06
1.54646e-06
1.59255e-06
1.7132e-06
3.28327e-07
3.29618e-07
3.10832e-07
3.0053e-07
3.09951e-07
3.20601e-07
3.30504e-07
3.43294e-07
3.57968e-07
3.75149e-07
3.94815e-07
4.16233e-07
4.39188e-07
4.6339e-07
4.88703e-07
5.15136e-07
5.42749e-07
5.71818e-07
6.02219e-07
6.33909e-07
6.66696e-07
7.00956e-07
7.36073e-07
7.72892e-07
8.0966e-07
8.49286e-07
8.87175e-07
9.30958e-07
9.67899e-07
1.01898e-06
1.04701e-06
1.12638e-06
1.99266e-07
1.86265e-07
1.7413e-07
1.67564e-07
1.72999e-07
1.78865e-07
1.84225e-07
1.91279e-07
1.99385e-07
2.08925e-07
2.19868e-07
2.31769e-07
2.44514e-07
2.57931e-07
2.7194e-07
2.86544e-07
3.01769e-07
3.17762e-07
3.34447e-07
3.51805e-07
3.6972e-07
3.88415e-07
4.07521e-07
4.27557e-07
4.47485e-07
4.69038e-07
4.89466e-07
5.13343e-07
5.33062e-07
5.61118e-07
5.75449e-07
6.19253e-07
6.69102e-08
5.90631e-08
5.49312e-08
5.27082e-08
5.44633e-08
5.62999e-08
5.79589e-08
6.01675e-08
6.27073e-08
6.57063e-08
6.91508e-08
7.28941e-08
7.69011e-08
8.11159e-08
8.55139e-08
9.00948e-08
9.48658e-08
9.98726e-08
1.0509e-07
1.10512e-07
1.16102e-07
1.21931e-07
1.27881e-07
1.34122e-07
1.40314e-07
1.4703e-07
1.5336e-07
1.60817e-07
1.66887e-07
1.75693e-07
1.7997e-07
1.93777e-07
7.72088e-07
1.32284e-06
1.53512e-06
1.68613e-06
1.79959e-06
1.90999e-06
2.02256e-06
2.1415e-06
2.27262e-06
2.41151e-06
2.55904e-06
2.71484e-06
2.87955e-06
3.05498e-06
3.24414e-06
3.44562e-06
3.659e-06
3.88311e-06
4.1171e-06
4.36927e-06
4.63433e-06
4.90997e-06
5.19764e-06
5.49391e-06
5.79457e-06
6.10962e-06
6.43253e-06
6.77042e-06
7.09939e-06
7.46812e-06
7.77783e-06
8.34727e-06
7.71825e-07
1.32371e-06
1.54047e-06
1.69688e-06
1.8145e-06
1.92726e-06
2.04445e-06
2.16892e-06
2.30309e-06
2.44368e-06
2.58991e-06
2.74224e-06
2.90302e-06
3.07556e-06
3.26195e-06
3.45883e-06
3.66754e-06
3.89016e-06
4.12265e-06
4.37046e-06
4.63056e-06
4.90245e-06
5.18484e-06
5.47548e-06
5.77092e-06
6.07973e-06
6.3951e-06
6.72634e-06
7.04895e-06
7.41101e-06
7.71421e-06
8.27177e-06
7.71277e-07
1.3269e-06
1.55233e-06
1.71541e-06
1.83719e-06
1.9529e-06
2.07436e-06
2.20268e-06
2.33751e-06
2.47687e-06
2.62028e-06
2.76976e-06
2.92759e-06
3.09664e-06
3.27753e-06
3.4688e-06
3.67172e-06
3.89102e-06
4.11875e-06
4.35888e-06
4.61114e-06
4.87556e-06
5.14974e-06
5.43227e-06
5.71983e-06
6.01973e-06
6.3247e-06
6.6459e-06
6.95874e-06
7.31101e-06
7.60457e-06
8.14461e-06
7.70461e-07
1.33452e-06
1.57047e-06
1.73873e-06
1.86222e-06
1.97965e-06
2.10243e-06
2.23092e-06
2.36362e-06
2.4998e-06
2.64004e-06
2.78691e-06
2.94145e-06
3.10555e-06
3.2798e-06
3.46445e-06
3.66062e-06
3.87245e-06
4.09768e-06
4.32541e-06
4.56841e-06
4.8236e-06
5.08831e-06
5.36162e-06
5.63997e-06
5.93001e-06
6.22392e-06
6.53384e-06
6.83508e-06
7.1755e-06
7.45808e-06
7.97872e-06
7.69442e-07
1.34776e-06
1.59315e-06
1.76287e-06
1.88414e-06
2.00074e-06
2.12182e-06
2.24745e-06
2.37612e-06
2.50781e-06
2.64387e-06
2.78652e-06
2.93625e-06
3.09437e-06
3.26157e-06
3.43886e-06
3.62735e-06
3.8304e-06
4.04575e-06
4.26755e-06
4.50052e-06
4.74557e-06
5.00012e-06
5.26359e-06
5.53212e-06
5.81199e-06
6.0949e-06
6.39367e-06
6.68319e-06
7.01063e-06
7.28164e-06
7.78192e-06
7.68367e-07
1.3659e-06
1.61773e-06
1.78253e-06
1.89711e-06
2.01057e-06
2.12753e-06
2.24792e-06
2.37084e-06
2.49684e-06
2.62775e-06
2.76521e-06
2.90938e-06
3.06112e-06
3.22114e-06
3.39067e-06
3.5709e-06
3.76466e-06
3.97026e-06
4.18576e-06
4.40861e-06
4.64289e-06
4.88666e-06
5.13971e-06
5.39795e-06
5.66744e-06
5.93943e-06
6.22731e-06
6.50552e-06
6.82065e-06
7.08036e-06
7.55921e-06
7.67674e-07
1.3873e-06
1.63963e-06
1.79235e-06
1.89722e-06
2.00586e-06
2.11682e-06
2.23038e-06
2.3464e-06
2.46594e-06
2.59107e-06
2.72284e-06
2.86111e-06
3.00638e-06
3.15924e-06
3.32094e-06
3.49267e-06
3.67694e-06
3.87259e-06
4.07848e-06
4.29391e-06
4.51791e-06
4.75037e-06
4.99228e-06
5.23957e-06
5.49824e-06
5.75912e-06
6.03605e-06
6.30301e-06
6.60641e-06
6.85514e-06
7.31389e-06
7.68048e-07
1.40923e-06
1.65333e-06
1.78885e-06
1.88282e-06
1.98532e-06
2.08886e-06
2.19459e-06
2.30308e-06
2.41573e-06
2.53466e-06
2.66041e-06
2.79258e-06
2.93137e-06
3.07717e-06
3.23113e-06
3.39438e-06
3.56919e-06
3.75476e-06
3.95025e-06
4.15541e-06
4.37065e-06
4.59323e-06
4.82357e-06
5.05914e-06
5.30614e-06
5.55527e-06
5.82071e-06
6.07602e-06
6.36749e-06
6.60502e-06
7.04491e-06
7.69838e-07
1.42697e-06
1.6548e-06
1.77016e-06
1.85302e-06
1.94796e-06
2.04303e-06
2.14044e-06
2.24119e-06
2.34681e-06
2.45932e-06
2.57882e-06
2.70471e-06
2.83694e-06
2.97575e-06
3.12209e-06
3.277e-06
3.44251e-06
3.61801e-06
3.8029e-06
3.99698e-06
4.20103e-06
4.41299e-06
4.63332e-06
4.85753e-06
5.09217e-06
5.32863e-06
5.58149e-06
5.82422e-06
6.10292e-06
6.32847e-06
6.74894e-06
7.7256e-07
1.43605e-06
1.64015e-06
1.73294e-06
1.80462e-06
1.89076e-06
1.97678e-06
2.06589e-06
2.15911e-06
2.25789e-06
2.36403e-06
2.47724e-06
2.59678e-06
2.72241e-06
2.85422e-06
2.993e-06
3.13966e-06
3.29602e-06
3.46157e-06
3.63579e-06
3.81851e-06
4.0106e-06
4.21027e-06
4.41837e-06
4.63078e-06
4.85359e-06
5.07734e-06
5.31671e-06
5.5457e-06
5.8102e-06
6.02252e-06
6.42166e-06
7.75422e-07
1.43181e-06
1.60114e-06
1.66961e-06
1.73038e-06
1.80713e-06
1.88405e-06
1.96523e-06
2.05139e-06
2.14378e-06
2.24386e-06
2.35099e-06
2.46427e-06
2.58333e-06
2.70812e-06
2.83931e-06
2.9777e-06
3.12492e-06
3.28051e-06
3.444e-06
3.61518e-06
3.79493e-06
3.98159e-06
4.1762e-06
4.37487e-06
4.58368e-06
4.79335e-06
5.01855e-06
5.23317e-06
5.48225e-06
5.68011e-06
6.05522e-06
7.77269e-07
1.40226e-06
1.52546e-06
1.56999e-06
1.62095e-06
1.68839e-06
1.75639e-06
1.8299e-06
1.90916e-06
1.99526e-06
2.08931e-06
2.19031e-06
2.29727e-06
2.40961e-06
2.52718e-06
2.6505e-06
2.78028e-06
2.91803e-06
3.06332e-06
3.2157e-06
3.37491e-06
3.54183e-06
3.71483e-06
3.89509e-06
4.07878e-06
4.27201e-06
4.4656e-06
4.6743e-06
4.87225e-06
5.10383e-06
5.28548e-06
5.63394e-06
7.74088e-07
1.3292e-06
1.4039e-06
1.4276e-06
1.47031e-06
1.52862e-06
1.58755e-06
1.65297e-06
1.72457e-06
1.80339e-06
1.89028e-06
1.98396e-06
2.08338e-06
2.18783e-06
2.29702e-06
2.41134e-06
2.53137e-06
2.65848e-06
2.79227e-06
2.93234e-06
3.07837e-06
3.23122e-06
3.38931e-06
3.55392e-06
3.72122e-06
3.89733e-06
4.073e-06
4.2632e-06
4.44213e-06
4.65373e-06
4.81633e-06
5.13444e-06
7.57362e-07
1.20259e-06
1.23642e-06
1.24389e-06
1.27947e-06
1.32837e-06
1.37756e-06
1.43362e-06
1.49579e-06
1.56514e-06
1.64228e-06
1.7258e-06
1.81472e-06
1.90828e-06
2.00612e-06
2.10851e-06
2.21589e-06
2.32946e-06
2.44886e-06
2.57372e-06
2.7037e-06
2.83965e-06
2.98001e-06
3.1262e-06
3.27437e-06
3.43062e-06
3.58565e-06
3.75457e-06
3.91157e-06
4.10022e-06
4.24059e-06
4.52434e-06
7.11643e-07
1.02504e-06
1.02935e-06
1.02536e-06
1.05403e-06
1.09263e-06
1.13099e-06
1.17588e-06
1.22616e-06
1.28294e-06
1.3466e-06
1.41572e-06
1.48948e-06
1.5672e-06
1.64854e-06
1.73365e-06
1.82288e-06
1.91722e-06
2.01637e-06
2.12007e-06
2.22799e-06
2.34095e-06
2.45756e-06
2.57927e-06
2.70244e-06
2.83294e-06
2.9617e-06
3.10352e-06
3.2333e-06
3.39307e-06
3.50646e-06
3.74817e-06
6.35872e-07
8.24071e-07
8.10816e-07
8.00285e-07
8.22556e-07
8.51286e-07
8.79306e-07
9.13019e-07
9.51085e-07
9.9455e-07
1.0436e-06
1.0969e-06
1.15385e-06
1.21386e-06
1.27662e-06
1.34223e-06
1.41092e-06
1.48342e-06
1.55949e-06
1.63895e-06
1.72151e-06
1.80786e-06
1.89684e-06
1.98984e-06
2.08367e-06
2.18358e-06
2.28143e-06
2.39069e-06
2.48869e-06
2.61327e-06
2.69633e-06
2.88642e-06
5.29194e-07
6.18728e-07
5.98245e-07
5.85572e-07
6.02029e-07
6.22067e-07
6.41165e-07
6.64824e-07
6.91698e-07
7.22696e-07
7.57862e-07
7.96059e-07
8.36871e-07
8.79827e-07
9.24697e-07
9.71526e-07
1.02045e-06
1.07196e-06
1.12589e-06
1.1821e-06