/*--------------------------------*- C++ -*----------------------------------*\
| =========                 |                                                 |
| \\      /  F ield         | OpenFOAM: The Open Source CFD Toolbox           |
|  \\    /   O peration     | Version:  2.4.0                                 |
|   \\  /    A nd           | Web:      www.OpenFOAM.org                      |
|    \\/     M anipulation  |                                                 |
\*---------------------------------------------------------------------------*/
FoamFile
{
    version     2.0;
    format      ascii;
    class       surfaceScalarField;
    location    "3000";
    object      phi;
}
// * * * * * * * * * * * * * * * * * * * * * * * * * * * * * * * * * * * * * //

dimensions      [1 0 -1 0 0 0 0];

internalField   nonuniform List<scalar> 
111440
(
7.43131e-10
-3.38788e-11
1.23057e-08
6.63777e-10
-1.16385e-11
9.09909e-11
6.55975e-10
-1.12624e-11
1.90641e-11
6.62449e-10
-8.62681e-12
2.153e-12
6.72591e-10
-2.35087e-12
-7.79109e-12
6.78987e-10
2.66039e-12
-9.0568e-12
6.88885e-10
1.45569e-11
-2.4455e-11
7.09229e-10
1.58548e-11
-3.61994e-11
7.4365e-10
9.11678e-12
-4.35382e-11
7.93151e-10
5.66248e-12
-5.51636e-11
8.55857e-10
7.21103e-12
-6.99172e-11
9.28986e-10
1.25368e-11
-8.56647e-11
1.01044e-09
1.85995e-11
-1.00055e-10
1.09945e-09
2.2762e-11
-1.11771e-10
1.19526e-09
2.37649e-11
-1.19578e-10
1.29714e-09
2.24151e-11
-1.24289e-10
1.405e-09
2.03745e-11
-1.28237e-10
1.51864e-09
1.86024e-11
-1.32244e-10
1.64008e-09
1.61709e-11
-1.37611e-10
1.77043e-09
1.38315e-11
-1.44181e-10
1.90797e-09
1.31194e-11
-1.50656e-10
2.05211e-09
1.26207e-11
-1.56763e-10
2.20213e-09
1.27683e-11
-1.62781e-10
2.3554e-09
1.29015e-11
-1.66177e-10
2.51315e-09
1.39848e-11
-1.71731e-10
2.67605e-09
1.31908e-11
-1.76096e-10
2.84492e-09
1.5912e-11
-1.84784e-10
3.01287e-09
1.40328e-11
-1.81982e-10
3.18676e-09
1.95578e-11
-1.93447e-10
3.3466e-09
1.19918e-11
-1.71834e-10
3.56876e-09
2.16376e-11
-2.43804e-10
2.06405e-11
-1.86654e-10
6.04035e-10
-6.40741e-11
1.00152e-08
5.37062e-10
-2.01278e-11
7.54597e-11
5.25974e-10
-2.18474e-11
2.16716e-11
5.27024e-10
-2.3007e-11
1.33288e-11
5.3325e-10
-6.46077e-12
-2.11603e-12
5.38927e-10
5.87973e-12
-8.89673e-12
5.49937e-10
2.12789e-11
-1.7733e-11
5.69948e-10
2.20354e-11
-2.61914e-11
6.00286e-10
1.34596e-11
-3.46821e-11
6.41188e-10
9.86616e-12
-4.5106e-11
6.91033e-10
1.33181e-11
-5.59524e-11
7.48385e-10
2.11745e-11
-6.59887e-11
8.12548e-10
2.89501e-11
-7.45141e-11
8.8323e-10
3.35419e-11
-8.14607e-11
9.59339e-10
3.44952e-11
-8.68388e-11
1.04012e-09
3.25199e-11
-9.08815e-11
1.12637e-09
2.93073e-11
-9.51833e-11
1.21779e-09
2.61796e-11
-9.89967e-11
1.3149e-09
2.26907e-11
-1.03629e-10
1.41845e-09
1.99311e-11
-1.09653e-10
1.52767e-09
1.91726e-11
-1.15274e-10
1.64206e-09
1.8981e-11
-1.20743e-10
1.76071e-09
2.0025e-11
-1.25903e-10
1.88186e-09
2.06946e-11
-1.28948e-10
2.00635e-09
2.28091e-11
-1.33316e-10
2.13433e-09
2.19394e-11
-1.36731e-10
2.26688e-09
2.6376e-11
-1.43011e-10
2.39904e-09
2.34011e-11
-1.41538e-10
2.53605e-09
3.24256e-11
-1.49875e-10
2.66189e-09
1.98533e-11
-1.33705e-10
2.8359e-09
3.66459e-11
-1.89023e-10
3.40076e-11
-1.44464e-10
4.90151e-10
-9.34113e-11
8.15055e-09
4.31037e-10
-2.95273e-11
6.85098e-11
4.1557e-10
-4.48176e-11
3.84355e-11
4.12562e-10
-3.69436e-11
1.69434e-11
4.16727e-10
-5.10563e-12
-5.52018e-12
4.22472e-10
1.12941e-11
-1.11604e-11
4.33943e-10
2.39268e-11
-1.41187e-11
4.52641e-10
2.28724e-11
-1.95356e-11
4.78521e-10
1.47359e-11
-2.71585e-11
5.11639e-10
1.20989e-11
-3.53502e-11
5.51025e-10
1.64853e-11
-4.25554e-11
5.96049e-10
2.42745e-11
-4.81206e-11
6.46408e-10
3.10481e-11
-5.24584e-11
7.0174e-10
3.46503e-11
-5.64381e-11
7.61256e-10
3.51713e-11
-6.01922e-11
8.24565e-10
3.29161e-11
-6.3705e-11
8.92667e-10
2.92507e-11
-6.80456e-11
9.65096e-10
2.58518e-11
-7.20989e-11
1.04133e-09
2.29645e-11
-7.65025e-11
1.12206e-09
2.10341e-11
-8.18376e-11
1.2072e-09
2.09567e-11
-8.69225e-11
1.29631e-09
2.14682e-11
-9.15906e-11
1.38861e-09
2.33999e-11
-9.56764e-11
1.48286e-09
2.46752e-11
-9.82312e-11
1.57951e-09
2.75649e-11
-1.01402e-10
1.67831e-09
2.70544e-11
-1.03921e-10
1.7803e-09
3.23236e-11
-1.07938e-10
1.88213e-09
2.90504e-11
-1.07486e-10
1.98802e-09
3.96807e-11
-1.13156e-10
2.08531e-09
2.45884e-11
-1.02017e-10
2.2188e-09
4.58338e-11
-1.42676e-10
4.15538e-11
-1.0942e-10
3.96366e-10
-1.20843e-10
6.63405e-09
3.42247e-10
-5.38704e-11
7.84579e-11
3.24092e-10
-6.88834e-11
4.22188e-11
3.19563e-10
-3.76177e-11
5.20137e-12
3.23223e-10
1.50679e-12
-1.02725e-11
3.29103e-10
1.60471e-11
-1.0634e-11
3.39865e-10
2.33967e-11
-1.02322e-11
3.56089e-10
2.05933e-11
-1.39452e-11
3.7734e-10
1.35393e-11
-2.00571e-11
4.03743e-10
1.16519e-11
-2.59552e-11
4.34752e-10
1.57279e-11
-3.02538e-11
4.7e-10
2.21894e-11
-3.31598e-11
5.09166e-10
2.74773e-11
-3.55962e-11
5.51922e-10
3.00007e-11
-3.81046e-11
5.97875e-10
3.00406e-11
-4.08219e-11
6.469e-10
2.79e-11
-4.4008e-11
6.99678e-10
2.47381e-11
-4.82666e-11
7.56655e-10
2.20281e-11
-5.31504e-11
8.15845e-10
2.03811e-11
-5.66021e-11
8.77454e-10
1.97108e-11
-6.02866e-11
9.43007e-10
2.05113e-11
-6.51073e-11
1.01161e-09
2.18325e-11
-6.8966e-11
1.0827e-09
2.44447e-11
-7.21311e-11
1.15533e-09
2.62279e-11
-7.41891e-11
1.22973e-09
2.95414e-11
-7.63766e-11
1.30546e-09
2.9549e-11
-7.82241e-11
1.38325e-09
3.49696e-11
-8.04374e-11
1.46073e-09
3.19281e-11
-8.03644e-11
1.54132e-09
4.26467e-11
-8.35574e-11
1.61545e-09
2.70028e-11
-7.65426e-11
1.71669e-09
5.05062e-11
-1.05921e-10
4.43033e-11
-8.14475e-11
3.18797e-10
-1.43188e-10
5.39934e-09
2.68437e-10
-1.01636e-10
9.81193e-11
2.50242e-10
-7.72434e-11
2.6553e-11
2.45804e-10
-2.80371e-11
-5.14367e-12
2.4941e-10
6.61696e-12
-8.71792e-12
2.55094e-10
1.59878e-11
-5.62519e-12
2.64473e-10
1.89089e-11
-4.8921e-12
2.77863e-10
1.5142e-11
-7.93881e-12
2.94836e-10
9.68803e-12
-1.31238e-11
3.15554e-10
8.9368e-12
-1.80035e-11
3.39662e-10
1.27056e-11
-2.10879e-11
3.66885e-10
1.77958e-11
-2.28259e-11
3.96963e-10
2.16345e-11
-2.42355e-11
4.29652e-10
2.32233e-11
-2.59101e-11
4.64761e-10
2.30045e-11
-2.80727e-11
5.0229e-10
2.13646e-11
-3.09918e-11
5.42676e-10
1.92423e-11
-3.48919e-11
5.86146e-10
1.77556e-11
-3.9195e-11
6.31753e-10
1.74189e-11
-4.26393e-11
6.79203e-10
1.79344e-11
-4.56745e-11
7.29178e-10
1.95426e-11
-4.90067e-11
7.81531e-10
2.15124e-11
-5.2031e-11
8.35857e-10
2.44799e-11
-5.43551e-11
8.91433e-10
2.65655e-11
-5.59174e-11
9.48372e-10
2.99447e-11
-5.73423e-11
1.0062e-09
3.04151e-11
-5.86996e-11
1.06543e-09
3.55082e-11
-5.97664e-11
1.12424e-09
3.29998e-11
-5.98907e-11
1.18506e-09
4.27755e-11
-6.09569e-11
1.24093e-09
2.79829e-11
-5.68495e-11
1.31691e-09
5.19293e-11
-7.74058e-11
4.36387e-11
-5.97487e-11
2.54833e-10
-1.55943e-10
4.38905e-09
2.08085e-10
-1.59469e-10
1.04575e-10
1.91726e-10
-6.62088e-11
5.32264e-12
1.87932e-10
-1.7509e-11
-6.73645e-12
1.91425e-10
6.55189e-12
-3.42852e-12
1.96555e-10
1.1005e-11
-1.48536e-13
2.04305e-10
1.12734e-11
-1.15124e-13
2.14947e-10
7.92785e-12
-3.428e-12
2.28182e-10
4.75355e-12
-8.30278e-12
2.44195e-10
5.53617e-12
-1.2613e-11
2.62712e-10
9.21111e-12
-1.50243e-11
2.83514e-10
1.31566e-11
-1.61596e-11
3.06403e-10
1.57841e-11
-1.7039e-11
3.31194e-10
1.66803e-11
-1.82459e-11
3.57797e-10
1.64328e-11
-2.00311e-11
3.86246e-10
1.55007e-11
-2.25844e-11
4.1684e-10
1.45878e-11
-2.59399e-11
4.49729e-10
1.43802e-11
-2.95112e-11
4.8464e-10
1.5156e-11
-3.26421e-11
5.20993e-10
1.66192e-11
-3.50383e-11
5.5882e-10
1.88047e-11
-3.70899e-11
5.9842e-10
2.1108e-11
-3.91939e-11
6.39616e-10
2.41015e-11
-4.08114e-11
6.81852e-10
2.6261e-11
-4.19342e-11
7.25178e-10
2.94155e-11
-4.27982e-11
7.69168e-10
3.02078e-11
-4.37886e-11
8.14188e-10
3.4647e-11
-4.41609e-11
8.58842e-10
3.27838e-11
-4.44426e-11
9.04813e-10
4.10129e-11
-4.42167e-11
9.4695e-10
2.79888e-11
-4.21422e-11
1.00341e-09
5.10056e-11
-5.55373e-11
4.06466e-11
-4.29567e-11
2.02525e-10
-1.60852e-10
3.56098e-09
1.59697e-10
-2.00209e-10
8.35621e-11
1.4579e-10
-4.76715e-11
-4.6319e-12
1.42737e-10
-1.18389e-11
-2.61921e-12
1.45974e-10
2.38352e-12
9.30296e-13
1.50331e-10
3.70527e-12
2.94172e-12
1.56471e-10
2.96283e-12
2.16988e-12
1.64698e-10
1.02206e-12
-1.32159e-12
1.74828e-10
3.77914e-13
-5.7571e-12
1.87046e-10
2.70047e-12
-9.38276e-12
2.0113e-10
6.3388e-12
-1.12136e-11
2.169e-10
9.35284e-12
-1.19627e-11
2.34197e-10
1.1042e-11
-1.25556e-11
2.52888e-10
1.14953e-11
-1.35044e-11
2.7292e-10
1.13901e-11
-1.49888e-11
2.94327e-10
1.12018e-11
-1.71067e-11
3.17318e-10
1.13975e-11
-1.98024e-11
3.4201e-10
1.22679e-11
-2.25766e-11
3.68262e-10
1.38584e-11
-2.49485e-11
3.95911e-10
1.58646e-11
-2.68949e-11
4.24728e-10
1.83292e-11
-2.83419e-11
4.54558e-10
2.0763e-11
-2.9483e-11
4.85523e-10
2.34995e-11
-3.03576e-11
5.17358e-10
2.54921e-11
-3.10677e-11
5.50102e-10
2.82037e-11
-3.15345e-11
5.83385e-10
2.91608e-11
-3.22421e-11
6.17475e-10
3.27539e-11
-3.21998e-11
6.51306e-10
3.15079e-11
-3.2559e-11
6.86081e-10
3.79188e-11
-3.16906e-11
7.17944e-10
2.71891e-11
-3.10625e-11
7.59983e-10
4.82273e-11
-3.92597e-11
3.61671e-11
-3.05812e-11
1.60003e-10
-1.74598e-10
2.89142e-09
1.21532e-10
-2.04454e-10
4.27096e-11
1.09938e-10
-3.20753e-11
-4.00469e-12
1.07572e-10
-1.08911e-11
1.41666e-12
1.10418e-10
-2.87022e-12
2.40654e-12
1.13918e-10
-3.01338e-12
3.21719e-12
1.18618e-10
-3.77455e-12
2.03722e-12
1.24842e-10
-4.0347e-12
-1.16812e-12
1.32479e-10
-2.49336e-12
-4.76823e-12
1.41699e-10
9.5836e-13
-7.47891e-12
1.5232e-10
4.42965e-12
-8.71322e-12
1.64188e-10
6.66755e-12
-9.17907e-12
1.77184e-10
7.67461e-12
-9.62971e-12
1.91205e-10
7.894e-12
-1.0418e-11
2.0621e-10
8.01122e-12
-1.16251e-11
2.22228e-10
8.46234e-12
-1.32775e-11
2.39403e-10
9.50849e-12
-1.52865e-11
2.57821e-10
1.11301e-11
-1.72778e-11
2.77401e-10
1.31866e-11
-1.89026e-11
2.98057e-10
1.54113e-11
-2.02027e-11
3.19786e-10
1.78037e-11
-2.12035e-11
3.42416e-10
2.00933e-11
-2.19588e-11
3.65725e-10
2.2476e-11
-2.22799e-11
3.8953e-10
2.4197e-11
-2.25113e-11
4.14049e-10
2.63139e-11
-2.26318e-11
4.39029e-10
2.72748e-11
-2.31007e-11
4.6468e-10
2.99655e-11
-2.28655e-11
4.90182e-10
2.92307e-11
-2.32287e-11
5.16399e-10
3.37894e-11
-2.20965e-11
5.40428e-10
2.55598e-11
-2.23995e-11
5.71843e-10
4.3832e-11
-2.70183e-11
3.07305e-11
-2.14866e-11
1.25447e-10
-2.21822e-10
2.36072e-09
9.16566e-11
-1.73803e-10
3.13467e-12
8.20626e-11
-2.2642e-11
1.58017e-13
8.02401e-11
-1.17416e-11
2.67096e-12
8.26224e-11
-6.77799e-12
1.52413e-12
8.52999e-11
-7.37575e-12
1.68424e-12
8.87916e-11
-7.76903e-12
5.01889e-13
9.34134e-11
-6.66278e-12
-1.99451e-12
9.90914e-11
-3.70302e-12
-4.47068e-12
1.05976e-10
2.43319e-13
-6.17033e-12
1.13912e-10
3.33841e-12
-6.84556e-12
1.22775e-10
4.92656e-12
-7.11896e-12
1.32475e-10
5.47358e-12
-7.50018e-12
1.4293e-10
5.60562e-12
-8.16465e-12
1.5411e-10
5.93981e-12
-9.10826e-12
1.66034e-10
6.83666e-12
-1.02965e-11
1.78798e-10
8.40093e-12
-1.16571e-11
1.92463e-10
1.04091e-11
-1.29421e-11
2.06979e-10
1.25954e-11
-1.39194e-11
2.22289e-10
1.47613e-11
-1.46589e-11
2.38409e-10
1.68896e-11
-1.52071e-11
2.55287e-10
1.88375e-11
-1.56194e-11
2.72829e-10
2.06962e-11
-1.57581e-11
2.90771e-10
2.20694e-11
-1.58148e-11
3.09106e-10
2.36622e-11
-1.56866e-11
3.27702e-10
2.45488e-11
-1.58758e-11
3.46819e-10
2.63589e-11
-1.55131e-11
3.6587e-10
2.59963e-11
-1.58214e-11
3.85495e-10
2.88595e-11
-1.4704e-11
4.03498e-10
2.30536e-11
-1.54971e-11
4.26901e-10
3.80531e-11
-1.76218e-11
2.4792e-11
-1.47452e-11
9.7394e-11
-3.08576e-10
1.93164e-09
6.8302e-11
-1.27062e-10
-1.76524e-11
6.04337e-11
-1.76078e-11
2.83149e-12
5.90152e-11
-1.19455e-11
1.6205e-12
6.09264e-11
-8.38361e-12
-3.06881e-13
6.28884e-11
-8.98797e-12
-3.50542e-13
6.54129e-11
-9.00369e-12
-1.29068e-12
6.87817e-11
-7.12911e-12
-2.90329e-12
7.29409e-11
-3.63337e-12
-4.23107e-12
7.80153e-11
1.79314e-13
-5.01128e-12
8.38768e-11
2.7256e-12
-5.24964e-12
9.04266e-11
3.78903e-12
-5.40956e-12
9.75964e-11
4.05491e-12
-5.75164e-12
1.05325e-10
4.18031e-12
-6.30165e-12
1.1359e-10
4.6651e-12
-6.99018e-12
1.22402e-10
5.77845e-12
-7.75207e-12
1.31827e-10
7.52377e-12
-8.54842e-12
1.41905e-10
9.57767e-12
-9.24463e-12
1.52601e-10
1.16249e-11
-9.71988e-12
1.63875e-10
1.3529e-11
-1.0041e-11
1.75739e-10
1.52741e-11
-1.02491e-11
1.88166e-10
1.68077e-11
-1.03953e-11
2.01117e-10
1.81408e-11
-1.03907e-11
2.14437e-10
1.91146e-11
-1.03657e-11
2.2815e-10
2.01593e-11
-1.02137e-11
2.42082e-10
2.08996e-11
-1.02883e-11
2.56335e-10
2.20228e-11
-9.92002e-12
2.70476e-10
2.19489e-11
-1.00981e-11
2.85032e-10
2.34409e-11
-9.14547e-12
2.98379e-10
1.97635e-11
-1.00576e-11
3.15676e-10
3.1281e-11
-1.05223e-11
1.88285e-11
-9.84395e-12
7.4815e-11
-4.06549e-10
1.5576e-09
5.00856e-11
-8.37209e-11
-1.86157e-11
4.37395e-11
-1.4193e-11
2.92878e-12
4.26366e-11
-1.07347e-11
-1.09763e-13
4.41193e-11
-7.96936e-12
-1.89825e-12
4.55051e-11
-8.44602e-12
-1.92842e-12
4.72816e-11
-8.2279e-12
-2.55316e-12
4.96863e-11
-6.17968e-12
-3.35487e-12
5.26747e-11
-2.8732e-12
-3.75066e-12
5.63494e-11
3.59705e-13
-3.85601e-12
6.06061e-11
2.2856e-12
-3.81753e-12
6.53673e-11
2.9521e-12
-3.92172e-12
7.0585e-11
3.06754e-12
-4.23079e-12
7.62154e-11
3.21122e-12
-4.65972e-12
8.22416e-11
3.75179e-12
-5.11244e-12
8.86713e-11
4.86945e-12
-5.5196e-12
9.55506e-11
6.51267e-12
-5.86852e-12
1.02907e-10
8.34857e-12
-6.12479e-12
1.10711e-10
1.00729e-11
-6.24785e-12
1.18936e-10
1.15978e-11
-6.29282e-12
1.27591e-10
1.29161e-11
-6.29759e-12
1.36653e-10
1.40328e-11
-6.28476e-12
1.46101e-10
1.49089e-11
-6.21176e-12
1.55833e-10
1.55306e-11
-6.14866e-12
1.65879e-10
1.61291e-11
-6.01874e-12
1.76125e-10
1.66682e-11
-6.02012e-12
1.86669e-10
1.72272e-11
-5.75167e-12
1.97178e-10
1.72926e-11
-5.85703e-12
2.07991e-10
1.78154e-11
-5.19501e-12
2.1787e-10
1.58622e-11
-5.97816e-12
2.30587e-10
2.40615e-11
-5.49526e-12
1.32937e-11
-6.46111e-12
5.69365e-11
-4.70435e-10
1.21198e-09
3.60079e-11
-5.30201e-11
-9.77518e-12
3.10395e-11
-1.09921e-11
1.76508e-12
3.0202e-11
-8.52165e-12
-1.37727e-12
3.13197e-11
-6.39162e-12
-2.69663e-12
3.22665e-11
-6.7366e-12
-2.65684e-12
3.34835e-11
-6.43734e-12
-3.00831e-12
3.51584e-11
-4.62624e-12
-3.22913e-12
3.72546e-11
-1.93445e-12
-3.0368e-12
3.98542e-11
5.19641e-13
-2.76046e-12
4.28732e-11
1.85957e-12
-2.59356e-12
4.62537e-11
2.24876e-12
-2.67497e-12
4.99638e-11
2.29497e-12
-2.9379e-12
5.39723e-11
2.4462e-12
-3.24204e-12
5.82692e-11
2.95071e-12
-3.49544e-12
6.28612e-11
3.91679e-12
-3.63822e-12
6.77803e-11
5.27396e-12
-3.68067e-12
7.30459e-11
6.73593e-12
-3.65113e-12
7.8639e-11
8.0477e-12
-3.56368e-12
8.45379e-11
9.1609e-12
-3.46061e-12
9.07491e-11
1.00737e-11
-3.36931e-12
9.72561e-11
1.08155e-11
-3.28778e-12
1.04044e-10
1.13327e-11
-3.20792e-12
1.11043e-10
1.16815e-11
-3.14993e-12
1.18277e-10
1.19655e-11
-3.07395e-12
1.25667e-10
1.23114e-11
-3.03846e-12
1.3329e-10
1.24941e-11
-2.89257e-12
1.40912e-10
1.25965e-11
-2.92972e-12
1.48779e-10
1.25196e-11
-2.57808e-12
1.55988e-10
1.17415e-11
-3.08886e-12
1.65281e-10
1.7015e-11
-2.24422e-12
8.54788e-12
-4.29189e-12
4.29447e-11
-4.72705e-10
8.99647e-10
2.533e-11
-3.41017e-11
-1.3062e-12
2.15883e-11
-7.86632e-12
6.13699e-13
2.09719e-11
-6.0383e-12
-1.86838e-12
2.17912e-11
-4.48299e-12
-2.72902e-12
2.24196e-11
-4.72679e-12
-2.63883e-12
2.32316e-11
-4.44609e-12
-2.8039e-12
2.4369e-11
-3.05861e-12
-2.70571e-12
2.58021e-11
-1.11381e-12
-2.2554e-12
2.75935e-11
5.72532e-13
-1.84511e-12
2.96771e-11
1.42972e-12
-1.65429e-12
3.20115e-11
1.63929e-12
-1.72298e-12
3.45753e-11
1.65751e-12
-1.92663e-12
3.73472e-11
1.79444e-12
-2.11892e-12
4.03228e-11
2.20164e-12
-2.22609e-12
4.35066e-11
2.93686e-12
-2.20301e-12
4.69219e-11
3.93481e-12
-2.07636e-12
5.05823e-11
4.97857e-12
-1.90146e-12
5.44757e-11
5.88042e-12
-1.7224e-12
5.85879e-11
6.61709e-12
-1.56713e-12
6.29237e-11
7.18891e-12
-1.45144e-12
6.74726e-11
7.63112e-12
-1.36287e-12
7.22241e-11
7.89458e-12
-1.31057e-12
7.71293e-11
8.05338e-12
-1.27689e-12
8.22081e-11
8.14235e-12
-1.25885e-12
8.74046e-11
8.33052e-12
-1.21967e-12
9.27752e-11
8.30624e-12
-1.18535e-12
9.81545e-11
8.3896e-12
-1.17568e-12
1.03719e-10
8.04078e-12
-1.09159e-12
1.08816e-10
7.93614e-12
-1.29222e-12
1.15398e-10
1.09332e-11
-4.98366e-13
4.92322e-12
-3.01343e-12
3.19557e-11
-4.16183e-10
6.35553e-10
1.74139e-11
-2.23164e-11
2.75456e-12
1.47072e-11
-5.12586e-12
-3.55664e-14
1.42672e-11
-3.83087e-12
-1.76874e-12
1.48511e-11
-2.77213e-12
-2.29566e-12
1.52576e-11
-2.94244e-12
-2.19133e-12
1.57864e-11
-2.72438e-12
-2.25104e-12
1.65407e-11
-1.77894e-12
-2.03459e-12
1.74965e-11
-5.17921e-13
-1.55305e-12
1.86993e-11
5.32402e-13
-1.16343e-12
2.00995e-11
1.03307e-12
-1.00389e-12
2.16671e-11
1.13575e-12
-1.06248e-12
2.33878e-11
1.14494e-12
-1.20846e-12
2.52481e-11
1.2523e-12
-1.3171e-12
2.72453e-11
1.54213e-12
-1.33727e-12
2.93826e-11
2.04024e-12
-1.23995e-12
3.1676e-11
2.69709e-12
-1.05584e-12
3.41344e-11
3.36656e-12
-8.45008e-13
3.67506e-11
3.92494e-12
-6.57555e-13
3.9516e-11
4.3636e-12
-5.1079e-13
4.24338e-11
4.68449e-12
-4.13789e-13
4.54978e-11
4.91523e-12
-3.46719e-13
4.87031e-11
5.0208e-12
-3.29132e-13
5.20153e-11
5.06684e-12
-3.25347e-13
5.54505e-11
5.05589e-12
-3.5146e-13
5.89701e-11
5.13322e-12
-3.25694e-13
6.26157e-11
5.02517e-12
-3.66803e-13
6.62714e-11
5.07024e-12
-3.39297e-13
7.00613e-11
4.67615e-12
-4.30203e-13
7.35234e-11
4.85671e-12
-3.83574e-13
7.80022e-11
6.31251e-12
1.4397e-13
2.49787e-12
-2.29054e-12
2.32418e-11
-3.21933e-10
4.26331e-10
1.16688e-11
-1.42021e-11
3.45718e-12
9.78576e-12
-3.00798e-12
-2.36372e-13
9.48127e-12
-2.15234e-12
-1.37504e-12
9.88524e-12
-1.4879e-12
-1.68892e-12
1.01414e-11
-1.60306e-12
-1.596e-12
1.04775e-11
-1.45538e-12
-1.60553e-12
1.09657e-11
-8.8068e-13
-1.38699e-12
1.15873e-11
-1.51282e-13
-9.89331e-13
1.23744e-11
4.34613e-13
-6.89958e-13
1.32907e-11
6.96865e-13
-5.80289e-13
1.43148e-11
7.41598e-13
-6.28743e-13
1.54377e-11
7.49448e-13
-7.27611e-13
1.66503e-11
8.24568e-13
-7.84006e-13
1.79508e-11
1.0083e-12
-7.6636e-13
1.93415e-11
1.30919e-12
-6.58996e-13
2.08321e-11
1.69528e-12
-4.88972e-13
2.24283e-11
2.07889e-12
-3.07408e-13
2.41253e-11
2.38769e-12
-1.57199e-13
2.59178e-11
2.62049e-12
-4.84434e-14
2.78084e-11
2.77913e-12
1.44325e-14
2.97925e-11
2.88126e-12
5.10696e-14
3.18683e-11
2.90583e-12
4.10466e-14
3.40137e-11
2.89933e-12
2.23704e-14
3.62399e-11
2.85435e-12
-2.69873e-14
3.8521e-11
2.87042e-12
-2.10495e-14
4.08876e-11
2.75513e-12
-9.83551e-14
4.32611e-11
2.76903e-12
-7.46714e-14
4.57251e-11
2.44757e-12
-2.3946e-13
4.79655e-11
2.67786e-12
-6.23389e-14
5.08644e-11
3.24316e-12
1.72176e-13
1.10619e-12
-1.81878e-12
1.63141e-11
-2.17101e-10
2.71955e-10
7.57149e-12
-8.30358e-12
2.84296e-12
6.31453e-12
-1.55616e-12
-1.96019e-13
6.11113e-12
-1.03721e-12
-9.12498e-13
6.38083e-12
-6.60419e-13
-1.09774e-12
6.5374e-12
-7.33122e-13
-1.02685e-12
6.74478e-12
-6.45434e-13
-1.01766e-12
7.05145e-12
-3.39459e-13
-8.48262e-13
7.44352e-12
2.72856e-14
-5.71518e-13
7.943e-12
3.10988e-13
-3.76329e-13
8.52413e-12
4.29336e-13
-3.13805e-13
9.17247e-12
4.46027e-13
-3.51801e-13
9.88232e-12
4.54015e-13
-4.14554e-13
1.06476e-11
5.00972e-13
-4.41028e-13
1.14671e-11
6.03915e-13
-4.1491e-13
1.23422e-11
7.63306e-13
-3.28759e-13
1.32787e-11
9.61946e-13
-2.03225e-13
1.42795e-11
1.15384e-12
-7.4903e-14
1.53416e-11
1.3024e-12
2.52104e-14
1.64615e-11
1.40941e-12
9.19317e-14
1.7641e-11
1.47598e-12
1.23403e-13
1.88767e-11
1.51162e-12
1.34831e-13
2.01681e-11
1.5053e-12
1.10616e-13
2.15014e-11
1.48498e-12
8.12675e-14
2.28845e-11
1.44261e-12
2.68363e-14
2.42998e-11
1.43566e-12
1.73256e-14
2.57683e-11
1.34918e-12
-6.40399e-14
2.72397e-11
1.34895e-12
-5.31625e-14
2.87672e-11
1.13596e-12
-2.18997e-13
3.01471e-11
1.31658e-12
-1.92509e-14
3.19278e-11
1.45303e-12
1.0696e-14
4.31245e-13
-1.41185e-12
1.08547e-11
-1.24442e-10
1.65314e-10
4.69079e-12
-4.1806e-12
2.04011e-12
3.89378e-12
-6.77248e-13
-8.27623e-14
3.76458e-12
-3.9791e-13
-5.10677e-13
3.93599e-12
-2.13164e-13
-6.19084e-13
4.02739e-12
-2.53916e-13
-5.70867e-13
4.14981e-12
-2.09563e-13
-5.58538e-13
4.33407e-12
-7.3757e-14
-4.50249e-13
4.57063e-12
7.70898e-14
-2.87019e-13
4.87371e-12
1.8851e-13
-1.80961e-13
5.22611e-12
2.30687e-13
-1.53905e-13
5.61853e-12
2.3553e-13
-1.81196e-13
6.04752e-12
2.42419e-13
-2.17497e-13
6.5092e-12
2.67737e-13
-2.27957e-13
7.00282e-12
3.16676e-13
-2.06204e-13
7.5291e-12
3.87216e-13
-1.49827e-13
8.09119e-12
4.71997e-13
-7.2208e-14
8.69057e-12
5.50967e-13
4.12727e-15
9.32529e-12
6.09041e-13
6.00998e-14
9.99315e-12
6.48673e-13
9.34698e-14
1.06951e-11
6.70085e-13
1.03717e-13
1.14291e-11
6.77343e-13
1.01004e-13
1.21948e-11
6.65732e-13
7.49669e-14
1.29842e-11
6.49551e-13
4.62583e-14
1.38022e-11
6.22492e-13
7.32391e-16
1.4638e-11
6.13112e-13
-1.4871e-14
1.55043e-11
5.6233e-13
-8.06062e-14
1.63714e-11
5.60689e-13
-8.02016e-14
1.72698e-11
4.43642e-13
-2.08458e-13
1.80769e-11
5.55511e-13
-4.65622e-14
1.91106e-11
5.30259e-13
-1.09886e-13
1.5753e-13
-1.01679e-12
6.61685e-12
-5.60361e-11
9.36833e-11
2.68886e-12
-1.6124e-12
1.35908e-12
2.22184e-12
-2.21317e-13
1.03331e-14
2.14666e-12
-9.89861e-14
-2.24238e-13
2.24728e-12
-2.8663e-14
-2.8549e-13
2.29651e-12
-4.70411e-14
-2.56327e-13
2.36347e-12
-2.95453e-14
-2.472e-13
2.46601e-12
1.48237e-14
-1.91375e-13
2.59822e-12
5.83563e-14
-1.14043e-13
2.76858e-12
8.82644e-14
-7.04346e-14
2.96649e-12
9.75444e-14
-6.48936e-14
3.1865e-12
9.84521e-14
-8.23058e-14
3.42665e-12
1.0271e-13
-1.00522e-13
3.68463e-12
1.13412e-13
-1.03233e-13
3.96005e-12
1.31114e-13
-8.97053e-14
4.25321e-12
1.54182e-13
-5.98038e-14
4.5657e-12
1.8037e-13
-2.0925e-14
4.89819e-12
2.03461e-13
1.55724e-14
5.24949e-12
2.19e-13
4.00189e-14
5.61834e-12
2.28594e-13
5.17542e-14
6.00517e-12
2.32164e-13
5.09117e-14
6.40889e-12
2.31149e-13
4.30769e-14
6.82914e-12
2.23696e-13
2.27639e-14
7.26178e-12
2.15832e-13
1.2433e-15
7.7093e-12
2.03243e-13
-2.94915e-14
8.16642e-12
1.98509e-13
-4.39343e-14
8.63871e-12
1.75535e-13
-8.64758e-14
9.11254e-12
1.76836e-13
-9.11881e-14
9.59933e-12
1.25272e-13
-1.70503e-13
1.00388e-11
1.81766e-13
-6.61327e-14
1.05878e-11
1.26496e-13
-1.44306e-13
6.23249e-14
-6.4995e-13
3.38262e-12
-1.47856e-11
4.53849e-11
1.31204e-12
-3.38254e-13
7.95906e-13
1.07781e-12
-3.72712e-14
4.9607e-14
1.04175e-12
-4.81007e-15
-5.84886e-14
1.09204e-12
1.00345e-14
-8.92629e-14
1.11428e-12
5.10852e-15
-7.45588e-14
1.14553e-12
9.06437e-15
-7.00277e-14
1.1941e-12
1.60842e-14
-5.00179e-14
1.25696e-12
2.09647e-14
-2.59005e-14
1.33853e-12
2.3644e-14
-1.71892e-14
1.43314e-12
2.37012e-14
-2.08572e-14
1.53816e-12
2.38538e-14
-2.99506e-14
1.65261e-12
2.52051e-14
-3.70071e-14
1.77534e-12
2.78669e-14
-3.68712e-14
1.90618e-12
3.12569e-14
-3.08631e-14
2.04521e-12
3.49647e-14
-1.95768e-14
2.19313e-12
3.85642e-14
-6.15294e-15
2.35017e-12
4.14408e-14
5.39967e-15
2.51568e-12
4.28993e-14
1.15526e-14
2.68913e-12
4.32592e-14
1.22839e-14
2.87055e-12
4.26393e-14
7.96895e-15
3.05966e-12
4.16062e-14
8.84765e-16
3.25587e-12
3.93144e-14
-1.10895e-14
3.45796e-12
3.73203e-14
-2.34502e-14
3.66591e-12
3.37877e-14
-3.94145e-14
3.87943e-12
3.29201e-14
-4.9005e-14
4.09735e-12
2.67522e-14
-6.98696e-14
4.31981e-12
2.86502e-14
-7.52003e-14
4.54082e-12
1.43665e-14
-1.11677e-13
4.75021e-12
3.28899e-14
-6.08596e-14
4.98815e-12
4.3989e-15
-1.15142e-13
2.24267e-14
-3.40227e-13
9.99041e-13
1.29119e-11
3.75939e-13
2.84804e-13
3.05746e-13
3.28743e-14
2.96331e-13
4.57324e-15
3.11165e-13
-4.82231e-15
3.16784e-13
-5.24166e-16
3.25333e-13
5.00956e-16
3.38763e-13
2.63916e-15
3.56207e-13
3.48482e-15
3.79088e-13
7.43078e-16
4.05532e-13
-2.75081e-15
4.34857e-13
-5.4318e-15
4.66748e-13
-6.69161e-15
5.00884e-13
-6.24194e-15
5.37209e-13
-5.05912e-15
5.75739e-13
-3.54472e-15
6.16633e-13
-2.33341e-15
6.5995e-13
-1.84138e-15
7.05457e-13
-2.52739e-15
7.53068e-13
-4.31917e-15
8.02663e-13
-6.96689e-15
8.54359e-13
-1.00517e-14
9.07651e-13
-1.39166e-14
9.6282e-13
-1.78382e-14
1.01881e-12
-2.22776e-14
1.07739e-12
-2.57543e-14
1.13507e-12
-3.09842e-14
1.19731e-12
-3.36713e-14
1.25327e-12
-4.17158e-14
1.31528e-12
-2.91519e-14
1.36789e-12
-4.815e-14
-1.0089e-13
3.85796e-09
-1.96556e-10
5.05557e-08
3.27317e-09
-8.1502e-11
7.57277e-10
3.17151e-09
-7.00935e-11
1.90815e-10
3.13194e-09
-5.06813e-11
9.24049e-11
3.09666e-09
-1.70368e-11
4.45305e-11
3.04945e-09
8.61502e-12
2.95306e-11
3.02384e-09
5.77859e-11
-5.66309e-11
3.05626e-09
6.39131e-11
-1.32532e-10
3.16406e-09
3.7866e-11
-1.89199e-10
3.348e-09
2.39204e-11
-2.63025e-10
3.59727e-09
2.96442e-11
-3.48837e-10
3.89544e-09
5.02022e-11
-4.34035e-10
4.22945e-09
7.37259e-11
-5.07788e-10
4.59269e-09
8.9985e-11
-5.64995e-10
4.9784e-09
9.41462e-11
-5.99438e-10
5.38017e-09
8.88722e-11
-6.14929e-10
5.79929e-09
8.03826e-11
-6.27735e-10
6.23612e-09
7.27295e-11
-6.41805e-10
6.6935e-09
6.29663e-11
-6.57958e-10
7.17031e-09
5.35906e-11
-6.7458e-10
7.6575e-09
5.00858e-11
-6.87934e-10
8.15142e-09
4.75547e-11
-6.98232e-10
8.6484e-09
4.75493e-11
-7.07317e-10
9.13617e-09
4.72505e-11
-7.01195e-10
9.61842e-09
5.05055e-11
-7.0449e-10
1.00925e-08
4.68278e-11
-6.97031e-10
1.05631e-08
5.55649e-11
-7.10944e-10
1.10043e-08
4.77575e-11
-6.70902e-10
1.14473e-08
6.60453e-11
-7.02489e-10
1.18265e-08
3.91819e-11
-5.90208e-10
1.23435e-08
6.99677e-11
-8.30752e-10
6.5361e-11
-5.6131e-10
3.13224e-09
-3.72598e-10
4.11521e-08
2.63789e-09
-1.46614e-10
6.34925e-10
2.51899e-09
-1.31755e-10
2.02228e-10
2.45698e-09
-1.149e-10
1.39554e-10
2.41624e-09
-3.53574e-11
5.69426e-11
2.38337e-09
2.13575e-11
1.12367e-11
2.38281e-09
8.53512e-11
-4.47438e-11
2.43095e-09
8.98747e-11
-1.00294e-10
2.53264e-09
5.63357e-11
-1.54848e-10
2.68609e-09
4.1115e-11
-2.15746e-10
2.88262e-09
5.35392e-11
-2.76379e-10
3.11374e-09
8.3644e-11
-3.3055e-10
3.37437e-09
1.14058e-10
-3.75471e-10
3.66104e-09
1.32569e-10
-4.1072e-10
3.96612e-09
1.36774e-10
-4.34539e-10
4.28369e-09
1.29e-10
-4.48586e-10
4.6176e-09
1.15856e-10
-4.64564e-10
4.96967e-09
1.02958e-10
-4.81294e-10
5.33778e-09
8.9079e-11
-4.97845e-10
5.71842e-09
7.76891e-11
-5.14394e-10
6.10772e-09
7.36578e-11
-5.28147e-10
6.50266e-09
7.17482e-11
-5.39872e-10
6.89923e-09
7.44127e-11
-5.49331e-10
7.28904e-09
7.55032e-11
-5.4702e-10
7.67529e-09
8.19828e-11
-5.51034e-10
8.05451e-09
7.74291e-11
-5.46559e-10
8.43135e-09
9.1767e-11
-5.56059e-10
8.78568e-09
7.94602e-11
-5.27575e-10
9.14245e-09
1.0942e-10
-5.50018e-10
9.44773e-09
6.48413e-11
-4.64649e-10
9.86474e-09
1.18359e-10
-6.54425e-10
1.08369e-10
-4.39818e-10
2.53523e-09
-5.42399e-10
3.35046e-08
2.09787e-09
-2.11347e-10
5.70598e-10
1.95456e-09
-2.28969e-10
2.78956e-10
1.88019e-09
-1.66903e-10
1.43311e-10
1.84476e-09
-2.92096e-11
2.3768e-11
1.8286e-09
4.30397e-11
-1.66883e-11
1.84591e-09
9.5947e-11
-4.20234e-11
1.90097e-09
9.34879e-11
-7.82046e-11
1.99186e-09
6.14995e-11
-1.23216e-10
2.11687e-09
4.96177e-11
-1.68866e-10
2.27118e-09
6.51834e-11
-2.08513e-10
2.45099e-09
9.49064e-11
-2.3919e-10
2.65378e-09
1.21697e-10
-2.62884e-10
2.87647e-09
1.36549e-10
-2.83115e-10
3.1136e-09
1.39095e-10
-2.99635e-10
3.3617e-09
1.30367e-10
-3.13172e-10
3.6245e-09
1.15795e-10
-3.30791e-10
3.90311e-09
1.01896e-10
-3.49642e-10
4.1934e-09
8.99414e-11
-3.67644e-10
4.4923e-09
8.1507e-11
-3.84565e-10
4.79847e-09
7.97459e-11
-3.99173e-10
5.10951e-09
8.01965e-11
-4.11085e-10
5.42223e-09
8.58406e-11
-4.19818e-10
5.73065e-09
8.88762e-11
-4.20022e-10
6.03703e-09
9.7855e-11
-4.23655e-10
6.33783e-09
9.42833e-11
-4.21587e-10
6.63764e-09
1.11345e-10
-4.27326e-10
6.92039e-09
9.7738e-11
-4.08516e-10
7.20609e-09
1.3311e-10
-4.22549e-10
7.45041e-09
7.96848e-11
-3.61184e-10
7.78461e-09
1.47392e-10
-5.0591e-10
1.32499e-10
-3.39932e-10
2.04059e-09
-7.0104e-10
2.72911e-08
1.63965e-09
-3.23688e-10
5.91737e-10
1.4875e-09
-3.17685e-10
2.83075e-10
1.41836e-09
-1.63629e-10
7.10695e-11
1.39554e-09
-1.81253e-12
-1.4857e-11
1.39313e-09
6.17405e-11
-2.69237e-11
1.41805e-09
9.36935e-11
-3.29019e-11
1.47053e-09
8.42667e-11
-5.72035e-11
1.54721e-09
5.64261e-11
-9.16654e-11
1.64732e-09
4.75332e-11
-1.23981e-10
1.76837e-09
6.19751e-11
-1.48095e-10
1.90818e-09
8.66383e-11
-1.64699e-10
2.06462e-09
1.07651e-10
-1.77987e-10
2.23522e-09
1.18312e-10
-1.90472e-10
2.41704e-09
1.19062e-10
-2.02603e-10
2.60841e-09
1.10873e-10
-2.1589e-10
2.81174e-09
9.82908e-11
-2.34095e-10
3.02787e-09
8.71056e-11
-2.54486e-10
3.25292e-09
7.94732e-11
-2.71172e-10
3.4846e-09
7.54761e-11
-2.8594e-10
3.72282e-09
7.69586e-11
-3.00535e-10
3.9654e-09
8.02228e-11
-3.11574e-10
4.21001e-09
8.8162e-11
-3.19059e-10
4.45222e-09
9.29129e-11
-3.20437e-10
4.69359e-09
1.03257e-10
-3.23152e-10
4.93073e-09
1.01387e-10
-3.22473e-10
5.16796e-09
1.18928e-10
-3.25244e-10
5.39247e-09
1.06126e-10
-3.13272e-10
5.62038e-09
1.41917e-10
-3.20282e-10
5.81513e-09
8.66641e-11
-2.78263e-10
6.08158e-09
1.61407e-10
-3.86388e-10
1.41491e-10
-2.58946e-10
1.62922e-09
-8.31859e-10
2.22338e-08
1.25714e-09
-5.05447e-10
6.51957e-10
1.11719e-09
-3.37625e-10
1.86432e-10
1.06222e-09
-1.20367e-10
6.56171e-12
1.05141e-09
2.02507e-11
-1.99679e-11
1.05756e-09
6.24432e-11
-1.2479e-11
1.08353e-09
7.67087e-11
-1.38795e-11
1.12904e-09
6.34366e-11
-3.26202e-11
1.19126e-09
4.16901e-11
-6.06119e-11
1.26997e-09
3.70998e-11
-8.62788e-11
1.36365e-09
5.03127e-11
-1.03116e-10
1.47084e-09
6.96855e-11
-1.13057e-10
1.58994e-09
8.50805e-11
-1.20767e-10
1.71927e-09
9.20735e-11
-1.28998e-10
1.85721e-09
9.17798e-11
-1.38729e-10
2.00304e-09
8.54466e-11
-1.51395e-10
2.15824e-09
7.67088e-11
-1.68503e-10
2.32329e-09
6.99555e-11
-1.87096e-10
2.49575e-09
6.70271e-11
-2.0265e-10
2.67383e-09
6.7187e-11
-2.15462e-10
2.85742e-09
7.15205e-11
-2.27162e-10
3.04506e-09
7.70666e-11
-2.36512e-10
3.23508e-09
8.62373e-11
-2.42446e-10
3.42401e-09
9.20665e-11
-2.44004e-10
3.61297e-09
1.02615e-10
-2.45655e-10
3.79892e-09
1.02377e-10
-2.45654e-10
3.9856e-09
1.18814e-10
-2.46329e-10
4.16282e-09
1.0795e-10
-2.38942e-10
4.34375e-09
1.40703e-10
-2.40673e-10
4.49839e-09
8.85055e-11
-2.13334e-10
4.70989e-09
1.64463e-10
-2.91957e-10
1.39431e-10
-1.95181e-10
1.28933e-09
-9.12357e-10
1.80869e-08
9.475e-10
-7.0115e-10
6.42098e-10
8.32205e-10
-2.83537e-10
6.65253e-11
7.91874e-10
-7.47371e-11
-1.20392e-11
7.89418e-10
2.3105e-11
-3.8286e-12
7.99502e-10
4.52229e-11
6.98708e-12
8.23059e-10
4.87756e-11
4.2592e-12
8.60244e-10
3.66634e-11
-1.38414e-11
9.09168e-10
2.32226e-11
-3.87629e-11
9.69961e-10
2.41858e-11
-6.04924e-11
1.04155e-09
3.69058e-11
-7.32095e-11
1.12284e-09
5.1862e-11
-7.96246e-11
1.21271e-09