/*--------------------------------*- C++ -*----------------------------------*\
| =========                 |                                                 |
| \\      /  F ield         | OpenFOAM: The Open Source CFD Toolbox           |
|  \\    /   O peration     | Version:  2.4.0                                 |
|   \\  /    A nd           | Web:      www.OpenFOAM.org                      |
|    \\/     M anipulation  |                                                 |
\*---------------------------------------------------------------------------*/
FoamFile
{
    version     2.0;
    format      ascii;
    class       volScalarField;
    location    "3000";
    object      rho;
}
// * * * * * * * * * * * * * * * * * * * * * * * * * * * * * * * * * * * * * //

dimensions      [1 -3 0 0 0 0 0];

internalField   nonuniform List<scalar> 
38400
(
30.9321
29.8178
29.523
29.3391
29.1193
28.8807
28.6466
28.4255
28.2376
28.0814
27.95
27.8335
27.7202
27.6018
27.4756
27.3351
27.1798
27.0106
26.8271
26.6317
26.4242
26.2029
25.9674
25.7194
25.4528
25.178
24.8802
24.5838
24.2432
23.9344
23.5327
23.2494
30.9289
29.8104
29.4881
29.2696
29.0294
28.7829
28.5567
28.3524
28.1772
28.0291
27.8991
27.7803
27.6642
27.5454
27.4199
27.2798
27.1258
26.9591
26.7792
26.5863
26.3797
26.1606
25.9267
25.6797
25.4144
25.1407
24.8438
24.5484
24.209
23.9013
23.5012
23.2184
30.9241
29.7897
29.4096
29.1478
28.8903
28.6429
28.4286
28.2424
28.0816
27.9411
27.8147
27.6964
27.5806
27.4628
27.3372
27.1988
27.0466
26.8835
26.7069
26.5167
26.312
26.0949
25.8632
25.6184
25.3551
25.083
24.7877
24.4941
24.1568
23.8508
23.4532
23.1719
30.9213
29.7389
29.2866
28.9924
28.7312
28.4928
28.293
28.1223
27.9729
27.841
27.7186
27.603
27.4888
27.3712
27.2459
27.1089
26.9585
26.7977
26.6238
26.4356
26.2335
26.0181
25.7886
25.5464
25.2859
25.0164
24.7232
24.4315
24.0966
23.7926
23.3973
23.1181
30.9221
29.6426
29.1311
28.8248
28.5715
28.3482
28.1629
28.0049
27.8662
27.7409
27.6228
27.5097
27.3961
27.279
27.1539
27.0173
26.8689
26.709
26.5373
26.3511
26.1509
25.9382
25.7104
25.4704
25.2126
24.9459
24.6553
24.366
24.0336
23.7318
23.3387
23.0618
30.9225
29.4999
28.9592
28.6582
28.4198
28.2132
28.0421
27.8951
27.7646
27.6451
27.5308
27.4191
27.3066
27.1896
27.0641
26.9285
26.7806
26.6221
26.4513
26.2677
26.0691
25.8582
25.6329
25.395
25.1393
24.875
24.587
24.3003
23.9704
23.671
23.2803
23.0058
30.9093
29.3242
28.7828
28.4985
28.2784
28.0889
27.9302
27.7927
27.6689
27.5544
27.4427
27.3329
27.2211
27.1037
26.9789
26.8435
26.6965
26.5387
26.3688
26.1863
25.9903
25.7807
25.5573
25.3218
25.0686
24.8064
24.5205
24.2361
23.9089
23.6118
23.2243
22.9517
30.8633
29.1325
28.6096
28.349
28.1477
27.973
27.8259
27.696
27.5787
27.4678
27.3591
27.2508
27.1392
27.0227
26.8979
26.7627
26.6167
26.4592
26.2906
26.1088
25.9142
25.707
25.485
25.2514
25.0005
24.7407
24.4572
24.1748
23.8501
23.5552
23.1702
22.9003
30.7683
28.9355
28.4432
28.2085
28.0247
27.8643
27.727
27.605
27.4922
27.3853
27.279
27.1716
27.0611
26.9449
26.8201
26.6858
26.5401
26.3837
26.2156
26.0354
25.8414
25.6361
25.4162
25.1842
24.9352
24.6775
24.3962
24.116
23.7934
23.5007
23.1178
22.8506
30.6165
28.7369
28.2845
28.0756
27.9091
27.761
27.6335
27.5177
27.4097
27.3061
27.2015
27.0957
26.9859
26.8696
26.7456
26.6116
26.4665
26.3111
26.1437
25.9647
25.7724
25.5676
25.3496
25.1195
24.8722
24.6162
24.3372
24.0591
23.7387
23.4481
23.067
22.8024
30.4133
28.5411
28.1361
27.952
27.8008
27.6649
27.5456
27.4357
27.3321
27.2307
27.1282
27.0234
26.9136
26.7977
26.6738
26.5399
26.3958
26.2405
26.0745
25.8957
25.7052
25.5019
25.285
25.0567
24.8113
24.5572
24.2795
24.0035
23.685
23.3966
23.0178
22.7553
30.177
28.3558
28.0014
27.8401
27.7038
27.578
27.466
27.3617
27.261
27.1618
27.0606
26.956
26.8462
26.7303
26.6057
26.4719
26.3279
26.173
26.0075
25.83
25.6399
25.4382
25.2223
24.9952
24.7517
24.4995
24.2238
23.9491
23.6328
23.3458
22.9696
22.7089
29.9193
28.1894
27.8849
27.7434
27.6198
27.5027
27.3974
27.2969
27.1986
27.1014
27.0007
26.8959
26.786
26.6692
26.5437
26.4099
26.2651
26.1107
25.9448
25.768
25.5782
25.3774
25.1628
24.9365
24.6941
24.4434
24.1694
23.8963
23.5818
23.2965
22.922
22.6634
29.6368
28.047
27.7871
27.6628
27.5492
27.4398
27.3396
27.2422
27.1465
27.0502
26.9496
26.8449
26.7343
26.6163
26.4905
26.3554
26.2103
26.0553
25.8891
25.7122
25.5229
25.3217
25.108
24.8826
24.6406
24.3908
24.1181
23.8464
23.5332
23.2494
22.8762
22.6193
29.3243
27.9298
27.7073
27.5964
27.4916
27.3882
27.292
27.1973
27.1035
27.0077
26.9075
26.8026
26.6912
26.5723
26.4458
26.3096
26.1641
26.0082
25.8419
25.6641
25.4751
25.274
25.0601
24.8353
24.5941
24.3443
24.0723
23.8015
23.4894
23.2066
22.8346
22.5789
28.9893
27.8339
27.6422
27.5421
27.4447
27.346
27.2532
27.161
27.0682
26.973
26.8731
26.7679
26.6557
26.5365
26.409
26.2721
26.1261
25.9695
25.8028
25.6245
25.4353
25.2344
25.0202
24.7956
24.5548
24.3057
24.0337
23.7634
23.452
23.1699
22.7988
22.5439
28.6515
27.7565
27.5894
27.4986
27.4066
27.3117
27.2215
27.1314
27.0396
26.9448
26.8452
26.7397
26.627
26.5073
26.379
26.2415
26.095
25.9379
25.7708
25.5925
25.4027
25.202
24.9875
24.763
24.5226
24.2739
24.0024
23.7321
23.4213
23.1398
22.7697
22.5149
28.3333
27.6938
27.5466
27.4633
27.3756
27.2839
27.1961
27.1074
27.0162
26.9221
26.8225
26.7168
26.6038
26.4836
26.3546
26.2168
26.0697
25.9124
25.7448
25.5665
25.3762
25.1756
24.9613
24.7365
24.4964
24.248
23.977
23.7069
23.3967
23.1152
22.7461
22.4914
28.0505
27.6429
27.5119
27.4346
27.3504
27.2613
27.1754
27.0878
26.9973
26.9036
26.8041
26.6981
26.585
26.4643
26.3348
26.1968
26.0491
25.8917
25.7237
25.5453
25.3547
25.1542
24.94
24.7152
24.4751
24.227
23.9563
23.6866
23.3766
23.0954
22.727
22.4723
27.8105
27.6018
27.484
27.4112
27.33
27.243
27.1587
27.0719
26.9818
26.8886
26.7892
26.6829
26.5696
26.4486
26.3187
26.1805
26.0324
25.8749
25.7066
25.5281
25.3375
25.1367
24.9227
24.6979
24.4578
24.2099
23.9395
23.67
23.3604
23.0795
22.7115
22.4571
46.2576
38.5037
37.0599
36.2214
35.2495
34.2558
33.3353
32.5429
31.9585
31.5565
31.3022
31.1405
31.0194
30.9046
30.779
30.6194
30.4227
30.1982
29.9451
29.6755
29.3837
29.069
28.7364
28.3833
28.0031
27.613
27.202
26.7913
26.3356
25.9107
25.4063
24.9766
46.2208
38.4479
36.8209
35.7763
34.7102
33.7068
32.8597
32.1737
31.6659
31.3089
31.0648
30.8937
30.7618
30.6448
30.5232
30.3681
30.1787
29.9682
29.7342
29.4777
29.1967
28.8942
28.5717
28.2278
27.8576
27.4774
27.0741
26.6714
26.2244
25.8073
25.3098
24.8907
46.1663
38.2932
36.2949
35.0208
33.9115
32.9567
32.2125
31.6417
31.2157
30.9058
30.6807
30.516
30.3868
30.2737
30.1555
30.0087
29.8319
29.6385
29.4231
29.1818
28.9152
28.6277
28.3192
27.9898
27.6347
27.2683
26.878
26.488
26.0535
25.6489
25.1617
24.7577
46.1351
37.9176
35.5114
34.1192
33.0565
32.2007
31.561
31.085
30.7269
30.4605
30.2598
30.1091
29.9878
29.8781
29.761
29.622
29.4561
29.2754
29.0738
28.846
28.594
28.3218
28.0283
27.7146
27.3759
27.0254
26.6495
26.2742
25.8535
25.4632
24.9873
24.601
46.1482
37.2317
34.5784
33.2103
32.2518
31.5123
30.9678
30.5667
30.2637
30.0336
29.8546
29.7159
29.5994
29.4915
29.376
29.2414
29.0844
28.9117
28.7203
28.5049
28.2657
28.0068
27.7276
27.4294
27.1063
26.7713
26.4102
26.0495
25.6426
25.2665
24.8028
24.4334
46.1572
36.2726
33.6195
32.3665
31.5333
30.9053
30.4426
30.1006
29.8404
29.6388
29.4776
29.3477
29.2354
29.1281
29.0131
28.8823
28.7305
28.5645
28.3799
28.1744
27.9465
27.6996
27.4329
27.1482
26.8396
26.5189
26.1717
25.8249
25.4313
25.0684
24.6169
24.264
46.009
35.1745
32.706
31.6109
30.9019
30.3711
29.9767
29.6817
29.4552
29.2767
29.1294
29.007
28.8975
28.7912
28.6776
28.5486
28.4016
28.2395
28.0612
27.8624
27.6439
27.4072
27.1512
26.8782
26.5823
26.2745
25.9399
25.6059
25.225
24.8746
24.4337
24.0965
45.4907
34.0706
31.8692
30.9423
30.3444
29.8953
29.5581
29.3024
29.103
28.9423
28.807
28.6908
28.5843
28.4794
28.3666
28.2398
28.0964
27.938
27.7644
27.5719
27.3602
27.1321
26.8855
26.6224
26.3373
26.0407
25.7174
25.3948
25.0255
24.6866
24.2554
23.9323
44.4591
33.0265
31.1164
30.3472
29.8453
29.4648
29.1756
28.9527
28.7766
28.6315
28.5061
28.3952
28.2918
28.1883
28.0767
27.9521
27.8117
27.657
27.4876
27.3005
27.0948
26.8739
26.6351
26.3807
26.1049
25.8179
25.5046
25.192
24.8332
24.5047
24.0832
23.7729
42.9185
32.0573
30.4418
29.8118
29.3934
29.0717
28.8242
28.6298
28.4725
28.3408
28.2237
28.1179
28.0168
27.9143
27.8037
27.6813
27.5437
27.3925
27.2269
27.0448
26.8449
26.6303
26.3983
26.1513
25.8837
25.6053
25.3009
24.9972
24.6473
24.328
23.9157
23.6171
41.0463
31.1728
29.8423
29.3333
28.9869
28.716
28.5041
28.3341
28.1928
28.0718
27.9613
27.8589
27.7591
27.6568
27.5465
27.4253
27.2898
27.1414
26.9793
26.8016
26.607
26.3981
26.1722
25.932
25.6718
25.4012
25.1046
24.8089
24.4672
24.1564
23.7514
23.4632
39.1129
30.3894
29.3243
28.9175
28.6326
28.4043
28.2217
28.0717
27.9431
27.8301
27.7241
27.6231
27.5231
27.4197
27.3083
27.1866
27.0519
26.9049
26.7451
26.5705
26.3802
26.1761
25.9553
25.721
25.4675
25.2036
24.9141
24.6254
24.2914
23.988
23.5905
23.3118
37.2739
29.7268
28.8931
28.5691
28.3345
28.1409
27.9822
27.8478
27.7291
27.6214
27.5181
27.4169
27.3152
27.2093
27.0955
26.9716
26.8361
26.6888
26.5295
26.3561
26.1686
25.9673
25.7504
25.5208
25.2723
25.0138
24.73
24.4472
24.1198
23.8228
23.4323
23.1614
35.5323
29.1896
28.5443
28.2858
28.0911
27.9247
27.7851
27.6626
27.5518
27.4474
27.3455
27.2439
27.1394
27.0304
26.9136
26.7867
26.649
26.4999
26.3396
26.166
25.9793
25.7789
25.5645
25.3374
25.092
24.837
24.5578
24.2797
23.9573
23.6657
23.2802
23.0158
33.864
28.7638
28.2664
28.0591
27.8954
27.7503
27.6257
27.5126
27.4073
27.3063
27.2047
27.102
26.9956
26.8832
26.763
26.6335
26.4928
26.3423
26.1797
26.0057
25.8178
25.6181
25.4042
25.1779
24.9344
24.6822
24.4058
24.1304
23.8118
23.5235
23.143
22.8821
32.2963
28.4292
28.0458
27.8784
27.7385
27.6106
27.4973
27.392
27.2912
27.1919
27.0913
26.9877
26.8788
26.7642
26.6414
26.509
26.3667
26.2136
26.0499
25.8738
25.6859
25.4856
25.2715
25.0461
24.8037
24.5524
24.2774
24.004
23.6879
23.4022
23.0249
22.7665
30.9011
28.1655
27.8702
27.7336
27.6131
27.4982
27.3944
27.2949
27.1973
27.1005
27
26.8953
26.7854
26.6685
26.543
26.4091
26.2644
26.1103
25.9447
25.7683
25.579
25.3787
25.1647
24.9392
24.6974
24.4474
24.1741
23.9018
23.5878
23.3033
22.9292
22.6718
29.726
27.9568
27.73
27.6178
27.5121
27.4081
27.3115
27.2164
27.1224
27.0266
26.9262
26.8212
26.71
26.5909
26.4646
26.3284
26.1829
26.0271
25.8606
25.683
25.4938
25.2924
25.0787
24.8537
24.6122
24.3624
24.0904
23.8193
23.5069
23.2239
22.8517
22.5957
28.7776
27.7905
27.6175
27.5244
27.4312
27.3354
27.2445
27.1538
27.0617
26.9667
26.867
26.7616
26.6489
26.5292
26.401
26.2636
26.1171
25.96
25.7929
25.6144
25.4248
25.2238
25.0093
24.7846
24.544
24.2949
24.0231
23.7528
23.4416
23.1598
22.7891
22.5343
28.0353
27.658
27.5271
27.4498
27.3657
27.2766
27.1906
27.103
27.0125
26.9186
26.8191
26.7131
26.5998
26.4791
26.3496
26.2114
26.0637
25.9061
25.7381
25.5595
25.3689
25.1682
24.9538
24.7289
24.4887
24.2404
23.9695
23.6996
23.3895
23.1082
22.7395
22.4848
90.533
59.7154
53.8071
50.6129
47.4532
44.4213
41.7366
39.5323
37.9726
36.9355
36.2887
35.8684
35.5407
35.2265
34.8912
34.4959
34.046
33.5653
33.0595
32.5459
32.0215
31.4871
30.9521
30.4105
29.8565
29.3065
28.7534
28.2106
27.6395
27.101
26.5119
25.95
90.4309
59.5449
53.0917
49.3198
45.9009
42.8621
40.4176
38.5389
37.2119
36.3135
35.7165
35.3017
34.9776
34.6853
34.3826
34.0196
33.6044
33.1648
32.705
32.2259
31.7296
31.2224
30.7097
30.1879
29.6534
29.1206
28.5817
28.0524
27.4946
26.9681
26.3893
25.8422
90.2885
59.0605
51.4917
47.0731
43.5586
40.7235
38.6429
37.1392
36.0752
35.3367
34.8219
34.456
34.1725
33.9225
33.6597
33.345
32.9807
32.5957
32.1881
31.7529
31.295
30.8243
30.3432
29.8508
29.3441
28.8365
28.3197
27.8113
27.2728
26.7646
26.2009
25.6754
90.2327
57.8749
49.0382
44.3232
41.0384
38.6003
36.9033
35.72
34.8803
34.2888
33.8662
33.5651
33.3301
33.1201
32.8946
32.6257
32.3118
31.9752
31.6129
31.222
30.8048
30.3718
29.9245
29.4646
28.989
28.5092
28.0167
27.532
27.0152
26.5278
25.9809
25.4805
90.3281
55.6611
46.0336
41.5372
38.7187
36.7344
35.3792
34.4464
33.7849
33.3127
32.9693
32.7211
32.5251
32.3467
32.1532
31.923
31.6523
31.3571
31.0355
30.6835
30.3049
29.908
29.4944
29.0664
28.6205
28.1689
27.7015
27.24
26.7451
26.2788
25.7491
25.2737
90.4189
52.439
42.9198
39.0239
36.735
35.1618
34.0856
33.3432
32.8157
32.4349
32.1531
31.9459
31.7795
31.6263
31.4588
31.2603
31.0253
30.7651
30.4784
30.1612
29.8171
29.4537
29.0718
28.6736
28.2566
27.8308
27.3882
26.9489
26.475
26.029
25.516
25.0648
90.0151
48.583
40.0469
36.8889
35.0812
33.8416
32.9839
32.3867
31.9602
31.649
31.4147
31.2391
31.0955
30.9623
30.8161
30.6428
30.4366
30.206
29.9497
29.6638
29.3506
29.0165
28.664
28.2941
27.9034
27.5032
27.0829
26.6654
26.2111
25.7843
25.2872
24.8585
88.4216
44.6605
37.5731
35.1129
33.6968
32.718
32.0309
31.5469
31.1978
30.9405
30.7435
30.5925
30.4677
30.3496
30.2205
30.0675
29.8853
29.6794
29.4492
29.1909
28.9059
28.5992
28.2725
27.9282
27.5626
27.1861
26.7872
26.3905
25.9548
25.5462
25.0644
24.6567
85.078
41.102
35.5077
33.6253
32.518
31.7428
31.1907
30.7968
30.5097
30.2949
30.1273
29.9967
29.8859
29.7804
29.6649
29.5281
29.3653
29.1805
28.9728
28.7389
28.4789
28.1974
27.8952
27.5747
27.2321
26.8774
26.4994
26.1225
25.7047
25.3137
24.8466
24.4592
79.6635
38.0728
33.7882
32.3607
31.4979
30.8846
30.4415
30.1206
29.8832
29.7025
29.5588
29.4438
29.3438
29.2478
29.1422
29.018
28.8709
28.7035
28.5152
28.3022
28.0644
27.8059
27.5266
27.2285
26.9077
26.5739
26.2161
25.858
25.4576
25.084
24.6309
24.2642
72.0766
35.5707
32.3575
31.2833
30.6163
30.1328
29.778
29.5157
29.3178
29.1633
29.0375
28.9333
28.8403
28.7496
28.6503
28.5345
28.399
28.2452
28.0725
27.8769
27.6593
27.4211
27.1622
26.885
26.5849
26.2717
25.9327
25.5929
25.2094
24.8531
24.4134
24.0676
62.8191
33.55
31.1871
30.3851
29.8717
29.4907
29.2053
28.9888
28.8209
28.6853
28.5712
28.4729
28.3821
28.2922
28.1946
28.0828
27.9536
27.8091
27.6468
27.4655
27.2628
27.0411
26.8005
26.542
26.2607
25.9663
25.6453
25.3234
24.9563
24.6172
24.1908
23.8658
53.6166
31.9691
30.2571
29.6593
29.2633
28.961
28.7288
28.547
28.4003
28.278
28.1698
28.073
27.9809
27.8876
27.7868
27.6747
27.5471
27.4057
27.2497
27.076
26.8838
26.6749
26.4472
26.2033
25.9376
25.6596
25.3547
25.0491
24.6975
24.3748
23.9611
23.6565
46.2432
30.7685
29.5351
29.0873
28.7791
28.5359
28.344
28.1874
28.0568
27.9423
27.8378
27.7399
27.6435
27.545
27.4394
27.3225
27.1927
27.0508
26.8949
26.7246
26.5373
26.335
26.116
25.8819
25.6269
25.361
25.0689
24.7766
24.4382
24.1297
23.7277
23.4411
40.7541
29.8683
28.9788
28.6413
28.3986
28.1994
28.0376
27.9007
27.7813
27.6729
27.57
27.4701
27.3693
27.2653
27.1536
27.0315
26.8979
26.7524
26.5951
26.4237
26.2378
26.0374
25.8224
25.5935
25.3451
25.0864
24.8026
24.5195
24.1908
23.8928
23.5002
23.2275
36.602
29.191
28.5489
28.2926
28.0994
27.934
27.7951
27.6729
27.5624
27.4582
27.3563
27.2547
27.1502
27.041
26.9242
26.7973
26.6597
26.5108
26.3505
26.1773
25.9907
25.7905
25.5765
25.3497
25.1045
24.8497
24.571
24.2931
23.9709
23.6793
23.2938
23.0296
33.4806
28.6754
28.2143
28.0194
27.8635
27.7237
27.6028
27.4919
27.3881
27.2877
27.186
27.083
26.9759
26.8623
26.7414
26.6108
26.4694
26.3179
26.1545
25.98
25.7918
25.5916
25.3776
25.1513
24.9078
24.6557
24.3797
24.1047
23.7867
23.4989
23.1191
22.8587
31.1703
28.2779
27.9516
27.8035
27.6764
27.5566
27.4493
27.3479
27.2491
27.1512
27.0506
26.9461
26.8364
26.7203
26.5957
26.462
26.3182
26.164
25.999
25.8225
25.6334
25.433
25.2184
24.9927
24.7507
24.4999
24.2256
23.9524
23.6375
23.352
22.9767
22.7182
29.4773
27.9684
27.7437
27.6324
27.527
27.4233
27.327
27.2321
27.1379
27.0422
26.9416
26.8366
26.7252
26.6061
26.4794
26.3432
26.1973
26.0414
25.8746
25.697
25.5074
25.3058
25.092
24.8667
24.6249
24.3751
24.1028
23.8315
23.519
23.2357
22.8633
22.607
28.2418
27.7248
27.5785
27.4953
27.408
27.3163
27.2284
27.1397
27.0486
26.9541
26.8545
26.7487
26.6354
26.5151
26.386
26.2478
26.1006
25.943
25.7753
25.5965
25.4063
25.2052
24.9904
24.7656
24.5251
24.2762
24.0047
23.7344
23.4237
23.1422
22.7724
22.5176
153.987
86.6771
73.5517
66.7404
60.8708
55.4994
50.8262
46.9997
44.2287
42.3244
41.0617
40.1771
39.464
38.8043
38.1463
37.4425
36.7008
35.9522
35.2027
34.4692
33.7482
33.0394
32.3506
31.6721
30.9974
30.3397
29.693
29.0658
28.4218
27.8135
27.1721
26.5325
153.81
86.385
72.371
64.666
58.4121
53.0454
48.7354
45.4039
43.0025
41.331
40.1729
39.3284
38.6494
38.0431
37.4483
36.8048
36.1225
35.4362
34.7516
34.0676
33.3878
32.7161
32.0582
31.4065
30.7568
30.1209
29.4918
28.8817
28.254
27.6606
27.0308
26.4084
153.584
85.5476
69.7422
61.0643
54.6865
49.6431
45.9025
43.1689
41.2076
39.8201
38.8258
38.0899
37.5013
36.9823
36.4682
35.9101
35.3123
34.7093
34.1011
33.4821
32.8572
32.2351
31.6201
31.0076
30.3937
29.7894
29.1885
28.6036
27.9992
27.4277
26.8161
26.2193
153.551
83.5223
65.7087
56.6267
50.6268
46.2095
43.0967
40.9054
39.3412
38.2239
37.4084
36.8024
36.3148
35.8808
35.4435
34.9679
34.4527
33.9267
33.3882
32.8326
32.2654
31.6952
31.1257
30.5551
29.9803
29.4112
28.8405
28.2839
27.7054
27.1584
26.5669
25.9987
153.824
79.7777
60.7322
52.0549
46.8154
43.1401
40.6166
38.8756
37.6398
36.7503
36.0913
35.5968
35.1954
34.833
34.4634
34.0595
33.617
33.1575
32.6807
32.1831
31.6696
31.1483
30.6227
30.0927
29.5556
29.0208
28.4804
27.9521
27.3993
26.8772
26.306
25.7663
154.07
74.3418
55.4704
47.827
43.4826
40.5163
38.5013
37.1202
36.1429
35.4348
34.9034
34.4999
34.1689
33.8666
33.5549
33.2111
32.8304
32.4283
32.006
31.5592
31.0941
30.618
30.1335
29.6417
29.1399
28.6376
28.1265
27.6248
27.0965
26.5974
26.0456
25.5334
153.29
67.7606
50.4614
44.1317
40.6453
38.2927
36.6956
35.6005
34.8256
34.2608
33.8323
33.5036
33.2313
32.9798
32.7172
32.4247
32.0966
31.7447
31.3701
30.9703
30.5481
30.1128
29.666
29.2095
28.7409
28.2684
27.7844
27.3082
26.803
26.3256
25.792
25.3054
150.154
60.8468
45.983
40.9726
38.2328
36.3884
35.13
34.2639
33.6493
33.1999
32.8558
32.5898
32.3676
32.1601
31.9403
31.6918
31.4092
31.1017
30.7705
30.4124
30.0306
29.6327
29.2205
28.7972
28.3586
27.915
27.4566
27.0039
26.5205
26.0637
25.5473
25.0846
143.812
54.2305
42.1058
38.2775
36.1609
34.7306
33.7478
33.0666
32.5823
32.2265
31.9528
31.7402
31.561
31.3918
31.2094
30.9999
30.7576
30.4901
30.1981
29.8787
29.5346
29.1722
28.7932
28.4004
27.9912
27.5736
27.1405
26.7101
26.2476
25.8107
25.3106
24.8707
134.006
48.2141
38.8101
35.9709
34.3656
33.2719
32.5129
31.9824
31.6037
31.3244
31.1085
30.9406
30.7979
30.6616
30.5115
30.3366
30.1305
29.8992
29.6434
29.3602
29.0517
28.7231
28.3764
28.0136
27.632
27.2413
26.8313
26.4234
25.9809
25.5636
25.0792
24.6615
120.638
42.9618
36.0656
34.0139
32.8202
31.9961
31.4163
31.0065
30.7111
30.4921
30.3215
30.1881
30.0738
29.9634
29.8404
29.694
29.5194
29.3211
29.0985
28.849
28.574
28.2778
27.962
27.629
27.2754
26.9105
26.5237
26.1387
25.7157
25.3181
24.8492
24.4541
103.881
38.6546
33.8537
32.3989
31.5248
30.9094
30.4684
30.1506
29.9177
29.7423
29.6035
29.4931
29.397
29.3031
29.1989
29.0742
28.9247
28.7536
28.5602
28.341
28.0969
27.8317
27.5456
27.2411
26.9146
26.5753
26.2131
25.8504
25.4473
25.07
24.6165
24.2453
84.7524
35.3824
32.1415
31.1168
30.4794
30.0181
29.6796
29.4291
29.2404
29.0935
28.9737
28.8745
28.7861
28.6991
28.6029
28.4902
28.3573
28.2053
28.034
27.8394
27.6219
27.3839
27.1249
26.8474
26.5471
26.2335
25.8945
25.5543
25.1712
24.8149
24.3769
24.0305
65.7187
33.0279
30.8552
30.1299
29.6613
29.3107
29.0464
28.8439
28.6844
28.5557
28.4451
28.3491
28.26
28.1708
28.0738
27.9636
27.837
27.6946
27.5359
27.3573
27.1589
26.9417
26.7045
26.45
26.1728
25.8825
25.5655
25.2474
24.8845
24.5491
24.1263
23.8055
50.9027
31.3644
29.898
29.3796
29.03
28.7591
28.5482
28.3798
28.2413
28.1235
28.0176
27.9201
27.8262
27.7307
27.6278
27.5134
27.3854
27.2439
27.0888
26.917
26.7281
26.5225
26.2998
26.0613
25.8013
25.5292
25.2304
24.9311
24.5861
24.27
23.8618
23.5655
41.7086
30.1784
29.1811
28.8078
28.544
28.3308
28.1589
28.0155
27.8921
27.7818
27.6776
27.5782
27.479
27.376
27.2656
27.1453
27.012
26.8677
26.7103
26.5389
26.3517
26.1512
25.934
25.703
25.4526
25.1918
24.9049
24.6185
24.2866
23.9849
23.5889
23.3119
36.0918
29.3142
28.6373
28.3688
28.1676
27.9968
27.8543
27.7294
27.6174
27.5126
27.4099
27.3082
27.2042
27.0948
26.9785
26.8519
26.7138
26.5652
26.4041
26.2309
26.0432
25.8426
25.6275
25.3992
25.1528
24.8971
24.6167
24.3372
24.0134
23.7201
23.3332
23.0667
32.4842
28.6704
28.2194
28.0274
27.8733
27.7348
27.6146
27.5041
27.4004
27.3
27.1982
27.0948
26.9872
26.8731
26.7514
26.6203
26.4781
26.326
26.1618
25.9865
25.7976
25.5966
25.3818
25.1547
24.9106
24.6577
24.3811
24.1054
23.7868
23.4983
23.1183
22.8568
30.0714
28.1811
27.8945
27.7604
27.6416
27.5277
27.4246
27.3256
27.2281
27.1311
27.0305
26.9254
26.8149
26.6976
26.5716
26.4369
26.2918
26.1367
25.9706
25.7934
25.6031
25.4024
25.1875
24.9612
24.7189
24.4681
24.194
23.9209
23.6063
23.321
22.9465
22.688
28.413
27.8032
27.6393
27.5491
27.4577
27.3634
27.2734
27.1828
27.0912
26.9964
26.8963
26.7906
26.6778
26.5573
26.4288
26.2909
26.1438
25.9863
25.8187
25.6395
25.4497
25.2481
25.0334
24.8082
24.567
24.3175
24.0453
23.7748
23.4633
23.1811
22.8102
22.5548
230.246
117.983
94.6478
83.0147
73.8466
65.831
59.0416
53.5815
49.6254
46.8856
45.0336
43.7108
42.6436
41.6767
40.7401
39.7758
38.7938
37.8271
36.8818
35.974
35.099
34.2537
33.4455
32.6614
31.8927
31.1522
30.4327
29.7404
29.0396
28.3783
27.6944
26.996
230.047
117.517
92.8596
79.9689
70.336
62.4233
56.1848
51.4119
47.9644
45.5478
43.8541
42.6061
41.6015
40.7158
39.8697
38.9903
38.0894
37.2048
36.3413
35.4974
34.6743
33.8761
33.106
32.355
31.6166
30.9021
30.2043
29.5324
28.8499
28.2059
27.536
26.8575
229.814
116.191
88.909
74.7466
65.0993
57.7582
52.3571
48.417
45.5814
43.5647
42.1096
41.0229
40.1514
39.3915
38.6598
37.898
37.11
36.3338
35.5684
34.8067
34.0538
33.3178
32.6008
31.8973
31.2026
30.5258
29.8611
29.2187
28.5637
27.945
27.2958
26.6461
229.832
113.035
82.9109
68.4226
59.4967
53.1117
48.6085
45.4249
43.1438
41.5059
40.3039
39.401
38.6733
38.0335
37.4109
36.761
36.0826
35.4062
34.7307
34.0496
33.3687
32.6959
32.035
31.3822
30.7339
30.0985
29.4693
28.8603
28.2354
27.6445
27.0182
26.4009
230.197
107.271
75.6223
62.0376
54.321
49.0036
45.3278
42.7726
40.9504
39.6319
38.6506
37.9057
37.2998
36.762
36.2337
35.6799
35.0961
34.5057
33.9085
33.2997
32.685
32.0719
31.464
30.86
30.2563
29.6613
29.0677
28.4908
27.8952
27.3325
26.7292
26.1441
230.434
98.9871
68.0627
56.2386
49.8529
45.5237
42.5539
40.5039
39.0454
37.983
37.1816
36.5659
36.0604
35.6076
35.1583
34.6846
34.1799
33.6629
33.1338
32.5881
32.0319
31.4727
30.9138
30.3547
29.7921
29.2346
28.6745
28.1282
27.5608
27.0243
26.443
25.8882
229.189
89.0589
61.0034
51.2371
46.0783
42.5918
40.2041
38.5582
37.3874
36.5295
35.8745
35.366
34.9448
34.5631
34.1812
33.7748
33.3377
32.8832
32.4133
31.924
31.4199
30.9087
30.3937
29.8753
29.3503
28.8271
28.2982
27.7805
27.239
26.7271
26.166
25.6394
224.613
78.7555
54.7848
46.9872
42.8734
40.0858
38.1761
36.8577
35.9195
35.2281
34.6956
34.2783
33.9295
33.6102
33.2867
32.9384
32.5593
32.1598
31.7423
31.303
30.8462
30.3788
29.9039
29.4228
28.9327
28.4415
27.941
27.4494
26.932
26.4431
25.901
25.4005
215.008
69.061
49.4246
43.3493
40.1024
37.8964
36.3831
35.3365
34.5905
34.0389
33.6111
33.2741
32.9898
32.7263
32.455
32.1587
31.8312
31.4814
31.1111
30.7183
30.3045
29.878
29.4402
28.9942
28.5361
28.0741
27.6011
27.1346
26.6393
26.1722
25.6477
25.1718
199.269
60.3665
44.8116
40.185
37.6618
35.9459
34.7667
33.9485
33.3649
32.9327
32.5964
32.3304
32.1041
31.8918
31.6685
31.4194
31.1392
30.8354
30.5098
30.1593
29.7868
29.3986
28.9967
28.5836
28.1561
27.723
27.2748
26.8325
26.3588
25.9121
25.4045
24.9523
177.461
52.6901
40.8336
37.4108
35.4988
34.1979
33.2998
32.6734
32.2266
31.8952
31.6372
31.4335
31.2588
31.0919
30.9124
30.7069
30.4706
30.2103
29.9266
29.6169
29.284
28.9329
28.5657
28.1845
27.7871
27.3815
26.9587
26.5394
26.0868
25.6602
25.1687
24.7401
150.89
46.0029
37.454
35.014
33.6145
32.6556
31.9871
31.5169
31.1793
30.9293
30.7347
30.581
30.4488
30.32
30.1787
30.0123
29.8168
29.5967
29.3527
29.0826
28.7877
28.4728
28.1397
27.7907
27.4226
27.0444
26.647
26.2507
25.819
25.4127
24.937
24.5322
121.612
40.4557
34.7127
33.0336
32.0391
31.3458
30.8534
30.5014
30.2455
30.0541
29.9036
29.7848
29.6816
29.5803
29.4676
29.3329
29.1715
28.9874
28.7804
28.5472
28.2888
28.0092
27.7097
27.3928
27.0547
26.7049
26.3323
25.9598
25.5494
25.1641
24.7042
24.3241
92.0196
36.286
32.6217
31.4843
30.7851
30.2834
29.9179
29.6496
29.4488
29.2948
29.1699
29.0685
28.9785
28.89
28.7916
28.6762
28.5386
28.3814
28.2037
28.0025
27.777
27.5304
27.2637
26.978
26.6699
26.3483
26.0022
25.6553
25.2666
24.9037
24.4604
24.1068
65.3777
33.4043
31.0889
30.3166
29.8212
29.4527
29.1758
28.9647
28.8005
28.6675
28.5551
28.4579
28.3677
28.2783
28.181
28.0696
27.9411
27.7972
27.6357
27.4552
27.2535
27.0326
26.7928
26.5351
26.2546
25.9609
25.6406
25.3192
24.9529
24.6142
24.1886
23.8643
47.6397
31.4551
29.9748
29.446
29.0903
28.8146
28.6003
28.4289
28.2889
28.169
28.0618
27.9633
27.8677
27.7708
27.6664
27.55
27.4199
27.2766
27.1189
26.9452
26.7539
26.5462
26.3219
26.0817
25.8203
25.5471
25.2474
24.9475
24.6021
24.2858
23.8772
23.5814
38.5947
30.1069
29.1553
28.7922
28.5343
28.3249
28.1553
28.0131
27.89
27.7795
27.6744
27.5736
27.4725
27.3672
27.2545
27.1315
26.9955
26.8486
26.6883
26.5144
26.3247
26.1216
25.9026
25.6696
25.4176
25.1555
24.8679
24.581
24.2491
23.9475
23.552
23.2755
33.61
29.1425
28.5409
28.2951
28.1078
27.9462
27.8099
27.6889
27.5789
27.4746
27.3717
27.2688
27.1625
27.051
26.9318
26.8022
26.6619
26.5102
26.347
26.1708
25.9813
25.7784
25.5615
25.3321
25.0846
24.8276
24.5466
24.2669
23.9434
23.6502
23.2649
22.9979
30.5518
28.4315
28.0726
27.9121
27.7761
27.651
27.5394
27.4347
27.3344
27.2351
27.1336
27.0291
26.9192
26.8027
26.6784
26.5441
26.4
26.2449
26.0792
25.9011
25.7113
25.5088
25.2929
25.0655
24.8212
24.5679
24.2913
24.0164
23.699
23.4115
23.0336
22.7726
28.5523
27.8948
27.7105
27.6129
27.5161
27.4183
27.326
27.2336
27.1409
27.0457
26.9451
26.8393
26.7269
26.6064
26.4782
26.3406
26.1934
26.0361
25.8681
25.6893
25.4988
25.2963
25.0817
24.8558
24.6136
24.3632
24.0908
23.8193
23.5069
23.2235
22.8517
22.595
282.23
157.466
120.079
101.937
88.4352
77.0365
67.6107
60.2054
54.9156
51.2816
48.8269
47.0689
45.6563
44.3911
43.1841
41.9667
40.7515
39.575
38.4419
37.3679
36.3465
35.3728
34.4522
33.5689
32.7124
31.8945
31.1078
30.3554
29.6013
28.8916
28.1685
27.4164
282.04
156.756
117.499
97.5992
83.5215
72.3789
63.791
57.3492
52.7539
49.5572
47.3243
45.6808
44.3629
43.2109
42.125
41.0205
39.9112
38.8388
37.8064
36.8115
35.8545
34.9376
34.0638
33.2204
32.3999
31.6127
30.8517
30.1226
29.39
28.7001
27.9925
27.2635
281.821
154.764
111.809
90.197
76.2756
66.0914
58.7461
53.4676
49.7078
47.0512
45.1435
43.721
42.5839
41.6
40.6665
39.7154
38.7509
37.8146
36.9045
36.0112
35.1404
34.299
33.489
32.7024
31.9335
31.191
30.4674
29.7735
29.0723
28.4109
27.7269
27.0306
281.833
150.118
103.172
81.3234
68.6602
59.9458
53.8933
49.6574
46.6449
44.4938
42.9221
41.7422
40.7943
39.9687
39.1783
38.3711
37.5451
36.7336
35.9348
35.1409
34.3572
33.5926
32.8494
32.1229
31.4084
30.714
30.0324
29.376
28.7093
28.0794
27.4218
26.7613
282.13
141.708
92.7082
72.5229
61.7778
54.6229
49.7241
46.338
43.935
42.2036
40.9198
39.9457
39.1566
38.4632
37.7945
37.1086
36.4001
35.6952
34.9927
34.2864
33.5824
32.8889
32.2086
31.5394
30.8767
30.2287
29.5881
28.9687
28.3354
27.7373
27.1054
26.4804
282.21
129.655
81.9773
64.716
55.976
50.2068
46.2638
43.5481
41.6213
40.222
39.1701
38.3619
37.7015
37.1164
36.5477
35.9616
35.3509
34.7348
34.1141
33.4841
32.8496
32.219
31.5962
30.9788
30.3636
29.7584
29.156
28.5714
27.9696
27.4009
26.7931
26.2019
280.681
115.145
72.1708
58.1627
51.1918
46.5614
43.3868
41.1987
39.6436
38.5058
37.64
36.9674
36.4128
35.9173
35.4318
34.9282
34.3982
33.8574
33.3069
32.7429
32.1694
31.5949
31.0224
30.4517
29.8795
29.313
28.7453
28.1927
27.6198
27.0784
26.4931
25.9332
275.784
100.016
63.7902
52.7517
47.2249
43.5076
40.95
39.183
37.9241
36.9969
36.2844
35.7255
35.2607
34.8417
34.4274
33.9934
33.5322
33.0558
32.5662
32.0597
31.5403
31.0154
30.4888
29.9601
29.4267
28.896
28.3603
27.8367
27.2903
26.7737
26.2092
25.6778
265.986
85.937
56.8148
48.2474
43.868
40.8885
38.8341
37.4114
36.3953
35.6433
35.0609
34.6006
34.2149
33.8635
33.5116
33.1386
32.7372
32.3179
31.8824
31.4279
30.9572
30.4773
29.992
29.5017
29.0035
28.5051
27.9983
27.502
26.9802
26.487
25.9415
25.4364
250.163
73.7502
51.0015
44.4141
40.9529
38.584
36.9506
35.817
35.0065
34.4042
33.9355
33.5633
33.2488
32.9587
32.6637
32.3457
31.9985
31.6309
31.245
30.8371
30.4117
29.9734
29.5265
29.0717
28.606
28.1381
27.659
27.1871
26.6881
26.2169
25.6891
25.209
227.248
63.485
46.0631
41.0635
38.3606
36.5116
35.238
34.3525
33.7194
33.2487
32.8808
32.5884
32.3391
32.1061
31.8639
31.5973
31.3007
30.9814
30.6416
30.2788
29.8951
29.4961
29.0858
28.6644
28.2302
27.7904
27.3374
26.8897
26.4117
25.9613
25.4502
24.994
196.064
54.7593
41.766
38.0722
36.0221
34.6254
33.6619
32.9905
32.5104
32.1537
31.8755
31.6548
31.4654
31.2846
31.0922
30.8742
30.6258
30.3533
30.0584
29.7386
29.3957
29.0352
28.6602
28.272
27.8676
27.4564
27.0279
26.604
26.1467
25.7164
25.2212
24.7884
157.724
47.1679
38.0179
35.4193
33.9383
32.9265
32.2224
31.7279
31.3735
31.111
30.9066
30.7458
30.6068
30.4727
30.3249
30.1524
29.9497
29.723
29.4726
29.1958
28.8942
28.5728
28.2336
27.8789
27.5058
27.1226
26.7202
26.32
25.8838
25.4741
24.9947
24.5859
118
40.7877
34.928
33.1978
32.1768
31.4658
30.961
30.6005
30.3385
30.1425
29.9894
29.8682
29.7637
29.6618
29.5476
29.412
29.2495
29.0646
28.856
28.6214
28.3618
28.0808
27.7796
27.4604
27.1201
26.7682
26.3937
26.0192
25.606
25.2188
24.7563
24.3738
82.0421
36.1203
32.6078
31.4833
30.7905
30.2918
29.9272
29.6586
29.4567
29.301
29.1742
29.0706
28.9784
28.8877
28.7876
28.6711
28.5332
28.3766
28.2001
28.0007
27.7775
27.5337
27.2698
26.987
26.6815
26.3626
26.0183
25.6736
25.2863
24.9252
24.4819
24.1306
54.743
33.0595
30.9542
30.2211
29.7469
29.3915
29.1225
28.9153
28.7521
28.6188
28.5042
28.4032
28.3091