/*--------------------------------*- C++ -*----------------------------------*\
| =========                 |                                                 |
| \\      /  F ield         | OpenFOAM: The Open Source CFD Toolbox           |
|  \\    /   O peration     | Version:  2.4.0                                 |
|   \\  /    A nd           | Web:      www.OpenFOAM.org                      |
|    \\/     M anipulation  |                                                 |
\*---------------------------------------------------------------------------*/
FoamFile
{
    version     2.0;
    format      ascii;
    class       volScalarField;
    location    "3000";
    object      T;
}
// * * * * * * * * * * * * * * * * * * * * * * * * * * * * * * * * * * * * * //

dimensions      [0 0 0 1 0 0 0];

internalField   nonuniform List<scalar> 
38400
(
540.621
557.226
560.295
562.23
564.671
567.374
570.082
572.535
574.334
575.468
575.995
576.107
576.007
575.833
575.65
575.559
575.57
575.663
575.834
576.004
576.201
576.439
576.688
576.981
577.336
577.693
578.047
578.4
578.817
579.205
579.648
580.119
540.673
557.355
560.917
563.478
566.312
569.189
571.777
573.936
575.497
576.485
576.989
577.153
577.109
576.952
576.761
576.664
576.66
576.7
576.809
576.943
577.115
577.322
577.552
577.828
578.161
578.505
578.852
579.194
579.594
579.969
580.394
580.853
540.751
557.717
562.329
565.704
568.888
571.818
574.209
576.047
577.359
578.197
578.651
578.809
578.765
578.602
578.411
578.293
578.256
578.234
578.281
578.379
578.521
578.694
578.896
579.143
579.443
579.76
580.09
580.415
580.789
581.14
581.538
581.974
540.797
558.613
564.548
568.558
571.859
574.663
576.815
578.381
579.477
580.174
580.552
580.665
580.601
580.434
580.248
580.115
580.048
579.993
579.969
580.055
580.166
580.307
580.478
580.69
580.952
581.234
581.535
581.836
582.182
582.506
582.871
583.275
540.783
560.319
567.39
571.678
574.88
577.439
579.338
580.673
581.586
582.158
582.461
582.537
582.461
582.298
582.119
581.978
581.891
581.819
581.776
581.812
581.897
582.009
582.149
582.326
582.548
582.792
583.058
583.327
583.639
583.937
584.269
584.639
540.777
562.865
570.566
574.822
577.785
580.051
581.703
582.843
583.604
584.072
584.312
584.36
584.277
584.119
583.948
583.805
583.708
583.626
583.571
583.565
583.622
583.711
583.824
583.969
584.153
584.359
584.588
584.821
585.096
585.362
585.657
585.998
540.993
566.039
573.864
577.864
580.516
582.488
583.913
584.883
585.518
585.9
586.088
586.112
586.023
585.869
585.704
585.561
585.458
585.371
585.307
585.284
585.304
585.365
585.456
585.573
585.724
585.894
586.088
586.284
586.521
586.751
587.01
587.313
541.742
569.55
577.151
580.752
583.077
584.774
585.993
586.815
587.342
587.651
587.793
587.794
587.698
587.546
587.383
587.241
587.132
587.041
586.97
586.935
586.937
586.966
587.023
587.115
587.239
587.378
587.539
587.701
587.902
588.095
588.319
588.578
543.3
573.212
580.351
583.496
585.5
586.945
587.975
588.662
589.094
589.338
589.439
589.418
589.314
589.161
588.999
588.854
588.74
588.642
588.564
588.517
588.504
588.513
588.545
588.601
588.692
588.804
588.935
589.068
589.235
589.395
589.586
589.8
545.814
576.956
583.433
586.113
587.808
589.017
589.871
590.435
590.781
590.966
591.031
590.991
590.88
590.727
590.565
590.418
590.297
590.191
590.104
590.045
590.015
590.007
590.018
590.051
590.111
590.187
590.285
590.388
590.525
590.653
590.814
590.984
549.22
580.698
586.356
588.58
589.977
590.966
591.66
592.111
592.382
592.519
592.554
592.502
592.389
592.239
592.081
591.935
591.811
591.7
591.604
591.533
591.487
591.461
591.453
591.464
591.499
591.548
591.616
591.686
591.788
591.884
592.014
592.142
553.244
584.298
589.033
590.826
591.947
592.736
593.287
593.643
593.851
593.951
593.967
593.911
593.805
593.667
593.522
593.384
593.264
593.154
593.055
592.977
592.92
592.88
592.855
592.847
592.86
592.885
592.927
592.972
593.044
593.11
593.209
593.294
557.711
587.573
591.375
592.784
593.662
594.279
594.708
594.983
595.143
595.216
595.222
595.172
595.08
594.962
594.837
594.717
594.61
594.51
594.417
594.341
594.282
594.235
594.201
594.18
594.177
594.185
594.206
594.23
594.278
594.319
594.393
594.443
562.703
590.402
593.351
594.432
595.105
595.578
595.906
596.116
596.237
596.292
596.294
596.253
596.179
596.085
595.984
595.887
595.799
595.716
595.638
595.572
595.518
595.475
595.44
595.416
595.406
595.403
595.413
595.423
595.454
595.478
595.531
595.556
568.345
592.765
594.982
595.792
596.296
596.65
596.895
597.053
597.143
597.183
597.185
597.153
597.097
597.025
596.948
596.874
596.807
596.742
596.682
596.63
596.587
596.552
596.523
596.501
596.491
596.486
596.49
596.494
596.514
596.529
596.567
596.58
574.546
594.705
596.316
596.904
597.269
597.526
597.705
597.819
597.884
597.914
597.914
597.891
597.85
597.798
597.742
597.688
597.639
597.592
597.548
597.509
597.478
597.451
597.43
597.414
597.405
597.401
597.403
597.406
597.42
597.43
597.457
597.465
580.95
596.286
597.402
597.809
598.062
598.24
598.364
598.443
598.488
598.508
598.509
598.493
598.465
598.429
598.39
598.353
598.318
598.286
598.255
598.229
598.207
598.189
598.174
598.163
598.157
598.154
598.155
598.157
598.167
598.174
598.193
598.198
587.134
597.573
598.285
598.545
598.707
598.821
598.9
598.95
598.98
598.993
598.993
598.983
598.965
598.942
598.917
598.893
598.871
598.85
598.831
598.814
598.8
598.789
598.779
598.772
598.768
598.767
598.768
598.769
598.775
598.78
598.792
598.796
592.76
598.619
599.004
599.144
599.232
599.293
599.336
599.363
599.379
599.386
599.386
599.381
599.371
599.359
599.345
599.332
599.321
599.309
599.299
599.29
599.282
599.276
599.271
599.267
599.265
599.264
599.265
599.266
599.269
599.272
599.278
599.28
597.629
599.469
599.588
599.632
599.659
599.678
599.691
599.699
599.704
599.706
599.706
599.705
599.702
599.698
599.694
599.69
599.686
599.683
599.679
599.677
599.674
599.672
599.671
599.67
599.669
599.669
599.669
599.669
599.67
599.671
599.673
599.674
380.878
442.058
455.402
463.613
473.722
484.644
495.339
504.835
511.715
516.048
518.12
518.684
518.496
518.067
517.641
517.586
517.934
518.553
519.443
520.411
521.54
522.863
524.267
525.851
527.64
529.492
531.325
533.239
535.202
537.276
539.05
541.974
381.118
442.613
458.002
468.732
480.311
491.772
501.86
510.131
516.056
519.808
521.774
522.509
522.506
522.121
521.646
521.541
521.803
522.23
522.853
523.648
524.641
525.803
527.081
528.547
530.204
531.937
533.672
535.477
537.331
539.292
540.978
543.739
381.475
444.167
463.861
477.751
490.499
501.935
511.076
518.01
522.92
526.067
527.814
528.498
528.473
528.042
527.539
527.324
527.426
527.61
527.977
528.575
529.387
530.357
531.458
532.74
534.202
535.748
537.321
538.953
540.639
542.426
543.977
546.492
381.68
447.994
472.95
489.1
502.008
512.709
520.775
526.576
530.618
533.198
534.63
535.126
535.005
534.538
534.025
533.72
533.672
533.696
533.865
534.295
534.921
535.697
536.606
537.682
538.926
540.262
541.643
543.074
544.568
546.152
547.549
549.781
381.594
455.211
484.374
501.229
513.455
523.011
529.992
534.853
538.165
540.25
541.384
541.725
541.54
541.066
540.553
540.19
540.035
539.953
539.998
540.267
540.727
541.325
542.048
542.921
543.953
545.076
546.258
547.485
548.784
550.157
551.394
553.336
381.534
465.82
496.854
513.17
524.224
532.516
538.481
542.563
545.283
546.965
547.852
548.073
547.847
547.374
546.865
546.47
546.246
546.094
546.051
546.189
546.51
546.956
547.512
548.201
549.036
549.959
550.947
551.978
553.088
554.259
555.34
556.996
382.513
478.765
509.495
524.457
534.141
541.226
546.285
549.709
551.948
553.302
553.986
554.108
553.847
553.375
552.869
552.454
552.183
551.983
551.875
551.921
552.119
552.435
552.852
553.381
554.04
554.781
555.59
556.437
557.371
558.351
559.283
560.672
385.991
492.719
521.779
534.946
543.27
549.264
553.526
556.386
558.221
559.299
559.811
559.844
559.549
559.071
558.562
558.13
557.822
557.581
557.422
557.396
557.5
557.703
557.996
558.391
558.901
559.482
560.131
560.81
561.581
562.385
563.177
564.318
393.199
506.872
533.45
544.709
551.758
556.781
560.333
562.694
564.177
565.017
565.376
565.327
564.999
564.51
563.993
563.541
563.198
562.918
562.711
562.621
562.645
562.756
562.944
563.219
563.598
564.041
564.549
565.08
565.703
566.347
567.01
567.921
404.724
520.921
544.444
553.851
559.715
563.858
566.769
568.68
569.853
570.485
570.712
570.592
570.235
569.738
569.216
568.747
568.371
568.051
567.797
567.645
567.595
567.623
567.719
567.89
568.153
568.473
568.854
569.255
569.746
570.246
570.789
571.491
420.097
534.583
554.666
562.333
567.097
570.44
572.773
574.287
575.194
575.654
575.776
575.61
575.242
574.754
574.241
573.768
573.372
573.022
572.727
572.52
572.401
572.352
572.363
572.442
572.602
572.812
573.079
573.362
573.733
574.103
574.537
575.051
437.762
547.407
563.866
569.952
573.723
576.359
578.19
579.369
580.06
580.39
580.444
580.263
579.915
579.464
578.988
578.541
578.151
577.796
577.482
577.239
577.069
576.957
576.898
576.897
576.967
577.081
577.248
577.427
577.689
577.943
578.276
578.622
456.516
558.827
571.798
576.513
579.431
581.469
582.882
583.786
584.309
584.549
584.57
584.403
584.102
583.716
583.306
582.915
582.565
582.238
581.94
581.695
581.506
581.362
581.26
581.204
581.208
581.247
581.334
581.429
581.6
581.757
582.001
582.204
476.305
568.502
578.399
581.976
584.189
585.736
586.808
587.493
587.887
588.064
588.072
587.936
587.694
587.387
587.058
586.741
586.454
586.181
585.928
585.713
585.539
585.398
585.287
585.211
585.182
585.179
585.215
585.255
585.361
585.447
585.622
585.721
497.406
576.444
583.786
586.439
588.082
589.232
590.029
590.538
590.831
590.961
590.965
590.862
590.679
590.446
590.197
589.956
589.736
589.526
589.33
589.16
589.021
588.904
588.81
588.741
588.706
588.69
588.703
588.718
588.785
588.832
588.956
589
519.44
582.869
588.146
590.057
591.242
592.072
592.647
593.015
593.227
593.321
593.324
593.249
593.116
592.948
592.767
592.592
592.433
592.28
592.137
592.013
591.911
591.824
591.754
591.701
591.673
591.658
591.665
591.672
591.718
591.747
591.836
591.858
541.125
588.047
591.669
592.984
593.8
594.372
594.77
595.024
595.17
595.235
595.237
595.185
595.094
594.978
594.854
594.733
594.623
594.518
594.42
594.335
594.264
594.205
594.156
594.12
594.101
594.091
594.096
594.1
594.132
594.152
594.213
594.229
561.117
592.219
594.517
595.353
595.872
596.237
596.49
596.651
596.745
596.786
596.788
596.755
596.697
596.623
596.544
596.467
596.398
596.331
596.269
596.215
596.17
596.133
596.102
596.08
596.068
596.062
596.065
596.069
596.089
596.103
596.142
596.153
578.54
595.586
596.821
597.272
597.552
597.748
597.884
597.972
598.022
598.044
598.045
598.028
597.996
597.957
597.914
597.873
597.835
597.799
597.766
597.737
597.713
597.693
597.677
597.665
597.659
597.656
597.658
597.66
597.671
597.679
597.7
597.707
593.068
598.308
598.688
598.827
598.913
598.974
599.016
599.043
599.059
599.066
599.066
599.06
599.051
599.039
599.025
599.013
599.001
598.99
598.98
598.971
598.964
598.957
598.952
598.949
598.947
598.946
598.947
598.948
598.951
598.954
598.96
598.962
253.996
315.223
337.509
352.214
369.066
387.861
407.12
424.982
438.656
447.974
453.464
456.512
458.467
460.184
462.051
464.531
467.595
470.957
474.579
478.254
482.009
485.848
489.614
493.426
497.282
501.082
504.658
508.242
511.631
515.209
517.986
522.891
254.109
315.815
340.767
359.14
378.827
399.312
418.232
434.353
446.443
454.701
459.867
462.992
465.009
466.56
468.131
470.329
473.088
476.064
479.212
482.546
486.03
489.593
493.137
496.751
500.407
504.03
507.459
510.893
514.138
517.571
520.233
524.935
254.268
317.521
348.459
372.277
395.133
416.694
434.566
448.526
458.773
465.802
470.351
473.107
474.779
475.931
477.124
478.861
481.127
483.558
486.169
489.06
492.159
495.36
498.585
501.894
505.252
508.601
511.794
514.993
518.016
521.229
523.718
528.113
254.331
321.853
361.46
390.545
415.135
436.165
452.326
464.191
472.708
478.503
482.235
484.377
485.563
486.307
487.124
488.388
490.135
492.061
494.221
496.635
499.309
502.115
504.98
507.942
510.963
514
516.915
519.84
522.607
525.563
527.853
531.9
254.224
330.572
379.691
411.988
436.226
455.407
469.513
479.483
486.461
491.135
494.091
495.685
496.454
496.849
497.316
498.153
499.424
500.899
502.613
504.614
506.864
509.27
511.763
514.368
517.045
519.759
522.383
525.024
527.529
530.213
532.297
535.983
254.123
344.935
401.825
434.402
456.689
473.424
485.459
493.786
499.478
503.214
505.511
506.654
507.082
507.183
507.342
507.809
508.663
509.734
511.042
512.655
514.504
516.52
518.643
520.892
523.229
525.621
527.953
530.312
532.558
534.976
536.856
540.181
254.575
365.256
425.848
456.203
475.756
490
500.137
507.058
511.69
514.657
516.409
517.178
517.322
517.175
517.068
517.22
517.714
518.423
519.36
520.593
522.079
523.727
525.491
527.39
529.392
531.468
533.51
535.591
537.583
539.742
541.425
544.4
256.42
390.34
449.944
476.63
493.327
505.278
513.736
519.45
523.196
525.522
526.818
527.27
527.175
526.819
526.483
526.368
526.55
526.936
527.536
528.413
529.539
530.844
532.272
533.831
535.506
537.267
539.022
540.827
542.57
544.473
545.963
548.599
260.621
418.049
472.994
495.602
509.6
519.508
526.482
531.142
534.127
535.909
536.814
536.995
536.701
536.168
535.643
535.298
535.214
535.312
535.604
536.151
536.936
537.9
538.998
540.239
541.598
543.051
544.517
546.045
547.539
549.185
550.484
552.782
268.523
446.402
494.601
513.255
524.768
532.848
538.498
542.226
544.552
545.868
546.444
546.4
545.948
545.278
544.605
544.076
543.767
543.614
543.632
543.878
544.344
544.982
545.756
546.675
547.725
548.877
550.062
551.311
552.554
553.936
555.044
556.995
282.507
473.991
514.528
529.531
538.774
545.218
549.695
552.611
554.38
555.316
555.634
555.431
554.877
554.128
553.364
552.709
552.23
551.878
551.666
551.651
551.83
552.166
552.634
553.241
553.984
554.832
555.734
556.703
557.697
558.809
559.728
561.315
306.095
499.655
532.327
544.076
551.303
556.324
559.798
562.037
563.361
564.014
564.16
563.879
563.301
562.55
561.772
561.07
560.499
560.02
559.648
559.433
559.381
559.461
559.66
559.984
560.44
560.995
561.619
562.306
563.049
563.884
564.614
565.823
340.572
522.247
547.543
556.526
562.05
565.888
568.54
570.237
571.224
571.683
571.741
571.456
570.927
570.251
569.54
568.876
568.304
567.79
567.349
567.025
566.824
566.725
566.722
566.822
567.038
567.338
567.714
568.139
568.645
569.207
569.753
570.58
380.972
541.109
560.08
566.811
570.957
573.841
575.835
577.109
577.842
578.173
578.194
577.951
577.515
576.961
576.373
575.811
575.31
574.845
574.424
574.084
573.83
573.647
573.533
573.495
573.549
573.666
573.851
574.068
574.376
574.704
575.086
575.567
422.644
556.341
570.2
575.143
578.193
580.32
581.792
582.732
583.272
583.513
583.522
583.334
583.001
582.577
582.125
581.689
581.294
580.92
580.575
580.283
580.05
579.864
579.724
579.635
579.613
579.633
579.707
579.796
579.969
580.133
580.389
580.614
463.901
568.476
578.313
581.843
584.027
585.552
586.609
587.284
587.673
587.846
587.851
587.714
587.473
587.166
586.837
586.519
586.23
585.954
585.696
585.475
585.294
585.145
585.026
584.94
584.902
584.89
584.917
584.949
585.048
585.127
585.297
585.387
502.585
578.127
584.813
587.227
588.723
589.769
590.495
590.96
591.227
591.346
591.35
591.256
591.09
590.879
590.654
590.435
590.236
590.046
589.868
589.715
589.589
589.483
589.398
589.336
589.305
589.291
589.304
589.318
589.38
589.424
589.538
589.579
536.778
585.824
590.033
591.56
592.508
593.171
593.632
593.927
594.097
594.173
594.176
594.117
594.012
593.878
593.735
593.597
593.471
593.351
593.239
593.142
593.062
592.996
592.943
592.903
592.884
592.875
592.884
592.893
592.932
592.96
593.032
593.057
565.569
591.986
594.236
595.054
595.563
595.92
596.168
596.326
596.418
596.459
596.461
596.429
596.372
596.301
596.224
596.15
596.083
596.018
595.958
595.907
595.864
595.829
595.801
595.78
595.77
595.766
595.771
595.777
595.799
595.814
595.854
595.869
588.946
596.938
597.626
597.877
598.034
598.144
598.22
598.269
598.297
598.31
598.31
598.301
598.283
598.261
598.238
598.215
598.194
598.174
598.156
598.14
598.127
598.117
598.108
598.102
598.099
598.098
598.1
598.102
598.108
598.114
598.126
598.131
220.556
257.944
278
292.852
309.187
328.059
348.574
368.97
386.097
399.011
407.855
413.946
418.7
423.047
427.43
432.315
437.662
443.181
448.813
454.365
459.845
465.258
470.453
475.567
480.599
485.478
490.009
494.48
498.634
502.986
506.307
512.203
220.6
258.311
280.383
298.392
317.612
338.698
359.743
379.131
395.007
406.937
415.412
421.49
426.204
430.286
434.279
438.794
443.761
448.833
453.944
459.104
464.268
469.371
474.312
479.2
484.01
488.692
493.059
497.368
501.362
505.558
508.754
514.433
220.657
259.382
286.091
309.206
332.25
355.631
376.862
394.872
409.175
419.874
427.626
433.196
437.415
440.941
444.404
448.326
452.687
457.118
461.612
466.255
470.972
475.662
480.24
484.788
489.267
493.65
497.758
501.813
505.567
509.527
512.533
517.888
220.666
262.102
296.071
325.033
351.327
375.841
396.485
412.884
425.503
434.828
441.571
446.322
449.848
452.767
455.668
458.959
462.67
466.481
470.411
474.509
478.737
482.98
487.154
491.318
495.429
499.472
503.279
507.041
510.521
514.209
517
521.986
220.597
267.659
310.865
344.984
372.984
397.2
416.501
431.112
442.016
449.951
455.646
459.588
462.452
464.797
467.148
469.839
472.929
476.165
479.554
483.148
486.889
490.68
494.44
498.213
501.949
505.645
509.138
512.6
515.8
519.205
521.774
526.383
220.535
277.168
330.339
367.703
395.696
418.491
435.943
448.726
458.011
464.656
469.37
472.567
474.824
476.635
478.464
480.6
483.117
485.817
488.694
491.809
495.084
498.434
501.784
505.168
508.537
511.889
515.07
518.235
521.161
524.29
526.642
530.878
220.731
291.589
353.732
391.917
418.516
439.192
454.575
465.573
473.375
478.854
482.671
485.181
486.87
488.178
489.513
491.133
493.12
495.314
497.702
500.342
503.175
506.101
509.05
512.052
515.061
518.076
520.949
523.823
526.482
529.343
531.485
535.364
221.541
311.402
380.023
416.747
441.016
459.223
472.482
481.78
488.227
492.648
495.639
497.501
498.652
499.477
500.338
501.472
502.958
504.665
506.58
508.756
511.142
513.653
516.212
518.838
521.49
524.171
526.739
529.325
531.722
534.32
536.259
539.793
223.306
336.687
408.246
441.71
463.088
478.682
489.847
497.538
502.739
506.191
508.415
509.664
510.301
510.658
511.064
511.727
512.732
513.964
515.411
517.126
519.065
521.15
523.312
525.564
527.862
530.207
532.469
534.763
536.899
539.233
540.972
544.162
226.454
367.409
437.458
466.475
484.642
497.602
506.748
512.935
516.997
519.57
521.096
521.78
521.938
521.857
521.829
522.042
522.578
523.342
524.325
525.575
527.06
528.71
530.46
532.323
534.257
536.259
538.208
540.203
542.073
544.135
545.674
548.51
231.922
402.901
466.475
490.466
505.307
515.72
522.984
527.809
530.87
532.687
533.616
533.825
533.579
533.122
532.71
532.513
532.61
532.922
533.446
534.234
535.26
536.463
537.788
539.243
540.796
542.435
544.055
545.735
547.33
549.105
550.44
552.901
241.872
440.562
493.735
512.699
524.353
532.45
538.057
541.72
543.962
545.187
545.672
545.546
545.027
544.31
543.616
543.093
542.818
542.729
542.83
543.177
543.754
544.51
545.403
546.439
547.594
548.851
550.124
551.467
552.769
554.234
555.358
557.414
261.056
476.245
517.707
532.162
541.025
547.161
551.397
554.13
555.754
556.57
556.782
556.492
555.861
555.046
554.223
553.517
552.995
552.611
552.378
552.352
552.529
552.871
553.351
553.974
554.731
555.597
556.51
557.497
558.493
559.623
560.527
562.139
297.75
506.853
537.644
548.38
554.967
559.531
562.682
564.701
565.878
566.433
566.515
566.198
565.601
564.839
564.047
563.322
562.718
562.199
561.78
561.512
561.4
561.42
561.557
561.82
562.213
562.708
563.273
563.903
564.589
565.369
566.048
567.185
353.793
531.55
553.699
561.502
566.3
569.633
571.938
573.411
574.263
574.651
574.684
574.413
573.925
573.304
572.648
572.026
571.48
570.979
570.536
570.191
569.951
569.798
569.729
569.751
569.88
570.085
570.364
570.687
571.095
571.547
572.013
572.68
414.476
550.986
566.474
571.996
575.401
577.773
579.416
580.467
581.073
581.346
581.363
581.16
580.799
580.338
579.848
579.378
578.955
578.559
578.195
577.893
577.659
577.478
577.35
577.281
577.286
577.339
577.45
577.581
577.798
578.015
578.312
578.618
469.714
566.221
576.624
580.369
582.686
584.304
585.426
586.144
586.559
586.746
586.757
586.618
586.369
586.052
585.714
585.388
585.094
584.816
584.558
584.34
584.166
584.027
583.92
583.85
583.829
583.837
583.886
583.941
584.063
584.17
584.359
584.491
516.678
578.222
584.711
587.065
588.525
589.546
590.256
590.71
590.973
591.092
591.099
591.011
590.855
590.654
590.441
590.236
590.05
589.874
589.711
589.573
589.463
589.373
589.304
589.258
589.242
589.245
589.272
589.303
589.376
589.438
589.556
589.627
555.06
587.737
591.181
592.437
593.217
593.764
594.144
594.388
594.53
594.594
594.598
594.551
594.467
594.36
594.246
594.136
594.037
593.944
593.857
593.784
593.725
593.678
593.641
593.617
593.61
593.611
593.627
593.644
593.684
593.718
593.782
593.821
585.572
595.328
596.376
596.759
596.998
597.166
597.283
597.358
597.401
597.421
597.422
597.408
597.382
597.349
597.315
597.281
597.251
597.222
597.196
597.173
597.155
597.141
597.13
597.123
597.121
597.122
597.127
597.132
597.145
597.156
597.176
597.189
205.303
232.824
248.666
261.821
276.469
294.006
313.936
334.646
353.005
367.618
378.286
386.143
392.549
398.447
404.311
410.613
417.31
424.114
430.956
437.649
444.189
450.582
456.675
462.619
468.413
473.996
479.16
484.222
488.9
493.77
497.485
504.045
205.345
233.059
250.43
266.314
283.735
303.63
324.541
344.776
362.241
376.056
386.412
394.257
400.61
406.229
411.683
417.587
423.874
430.202
436.501
442.772
448.967
455.024
460.841
466.538
472.091
477.461
482.447
487.332
491.839
496.543
500.122
506.452
205.393
233.745
254.702
275.252
296.601
319.263
341.083
360.614
376.918
389.704
399.418
406.783
412.639
417.682
422.568
427.837
433.478
439.122
444.762
450.475
456.186
461.795
467.218
472.546
477.743
482.79
487.497
492.11
496.359
500.81
504.186
510.172
205.389
235.472
262.351
288.687
313.786
338.393
360.459
378.992
393.949
405.511
414.274
420.832
425.979
430.379
434.656
439.248
444.192
449.171
454.194
459.328
464.512
469.64
474.627
479.543
484.343
489.027
493.41
497.712
501.668
505.83
508.975
514.571
205.314
239.025
274.067
306.121
333.824
359.137
380.647
397.864
411.323
421.566
429.288
435.014
439.461
443.241
446.919
450.865
455.147
459.509
463.953
468.542
473.208
477.855
482.401
486.899
491.301
495.614
499.663
503.646
507.304
511.169
514.077
519.276
205.264
245.251
290.054
326.57
355.401
380.318
400.634
416.324
428.258
437.209
443.915
448.847
452.634
455.828
458.937
462.284
465.955
469.746
473.646
477.72
481.895
486.08
490.194
494.283
498.297
502.247
505.967
509.636
513.005
516.579
519.257
524.067
205.523
255.083
309.978
349.024
377.673
401.398
420.109
434.165
444.612
452.336
458.073
462.244
465.397
468.028
470.592
473.381
476.486
479.74
483.125
486.703
490.41
494.152
497.85
501.542
505.18
508.779
512.177
515.543
518.631
521.926
524.384
528.822
206.455
269.308
333.228
372.81
400.301
422.294
439.152
451.525
460.529
467.08
471.88
475.302
477.829
479.903
481.935
484.189
486.755
489.494
492.382
495.476
498.722
502.033
505.326
508.632
511.905
515.161
518.244
521.313
524.129
527.154
529.399
533.481
208.335
288.442
359.309
397.674
423.31
443.173
458.01
468.666
476.254
481.66
485.535
488.204
490.097
491.605
493.102
494.826
496.864
499.092
501.488
504.102
506.887
509.763
512.651
515.574
518.487
521.403
524.175
526.949
529.499
532.257
534.296
538.028
211.277
313.002
387.946
423.643
446.826
464.221
476.9
485.81
491.996
496.276
499.23
501.14
502.385
503.315
504.265
505.451
506.954
508.665
510.559
512.685
515.001
517.432
519.904
522.435
524.982
527.555
530.013
532.49
534.773
537.261
539.098
542.479
215.4
343.737
418.881
450.612
470.751
485.386
495.82
502.987
507.811
511.005
513.066
514.231
514.836
515.186
515.584
516.222
517.179
518.355
519.73
521.351
523.181
525.149
527.186
529.31
531.476
533.69
535.825
537.993
540.005
542.215
543.848
546.867
221.348
381.183
451.195
477.834
494.423
506.159
514.383
519.905
523.481
525.697
526.957
527.455
527.478
527.292
527.162
527.264
527.674
528.304
529.144
530.239
531.559
533.039
534.62
536.31
538.075
539.91
541.701
543.543
545.27
547.185
548.61
551.247
231.465
423.691
482.687
503.674
516.589
525.581
531.817
535.917
538.465
539.907
540.554
540.553
540.146
539.545
538.984
538.62
538.527
538.636
538.947
539.51
540.304
541.273
542.369
543.598
544.931
546.358
547.78
549.268
550.689
552.283
553.489
555.709
252.386
465.667
510.703
526.4
536.021
542.684
547.287
550.271
552.06
552.982
553.26
553.006
552.397
551.602
550.809
550.149
549.695
549.392
549.255
549.336
549.63
550.095
550.697
551.444
552.321
553.304
554.326
555.42
556.508
557.739
558.709
560.454
298.681
501.64
533.886
545.221
552.175
556.997
560.33
562.475
563.736
564.345
564.46
564.159
563.569
562.812
562.028
561.318
560.736
560.245
559.86
559.63
559.562
559.627
559.811
560.122
560.563
561.106
561.717
562.394
563.122
563.948
564.662
565.859
372.153
530.131
552.368
560.31
565.199
568.6
570.956
572.47
573.354
573.769
573.825
573.577
573.113
572.519
571.893
571.306
570.797
570.336
569.935
569.63
569.43
569.315
569.278
569.329
569.481
569.705
569.997
570.328
570.741
571.191
571.661
572.314
442.842
552.208
566.947
572.285
575.584
577.887
579.485
580.513
581.113
581.393
581.427
581.253
580.929
580.513
580.074
579.657
579.289
578.95
578.645
578.401
578.223
578.096
578.019
577.996
578.04
578.128
578.265
578.419
578.647
578.874
579.17
579.477
500.823
569.367
578.465
581.796
583.861
585.306
586.312
586.959
587.337
587.514
587.536
587.426
587.221
586.959
586.681
586.417
586.183
585.967
585.771
585.613
585.495
585.409
585.352
585.329
585.347
585.391
585.467
585.55
585.684
585.81
585.993
586.156
546.89
582.824
587.613
589.379
590.478
591.249
591.786
592.132
592.334
592.429
592.441
592.382
592.273
592.133
591.985
591.844
591.72
591.605
591.501
591.417
591.354
591.308
591.278
591.265
591.275
591.298
591.339
591.383
591.455
591.522
591.62
591.707
582.862
593.47
594.916
595.453
595.788
596.024
596.188
596.294
596.356
596.385
596.389
596.371
596.337
596.295
596.25
596.207
596.169
596.134
596.102
596.077
596.058
596.044
596.035
596.031
596.035
596.042
596.055
596.069
596.091
596.113
596.143
596.171
191.911
219.439
231.43
242.109
254.502
270.133
288.891
309.269
328.081
343.579
355.291
364.212
371.658
378.571
385.443
392.749
400.426
408.182
415.941
423.513
430.883
438.051
444.865
451.482
457.901
464.062
469.754
475.306
480.43
485.732
489.788
496.901
191.971
219.607
232.689
245.652
260.691
278.83
298.963
319.299
337.518
352.391
363.871
372.813
380.216
386.851
393.305
400.192
407.437
414.692
421.884
429.007
436.006
442.814
449.331
455.68
461.839
467.771
473.27
478.633
483.572
488.696
492.607
499.477
192.041
220.088
235.776
252.905
271.974
293.324
314.971
335.151
352.567
366.613
377.555
386.069
392.998
399.054
404.918
411.139
417.701
424.234
430.729
437.255
443.732
450.059
456.15
462.102
467.878
473.463
478.662
483.733
488.397
493.251
496.945
503.45
192.037
221.264
241.467
264.257
287.566
311.54
334.091
353.772
370.147
383.132
393.207
400.955
407.183
412.582
417.808
423.315
429.142
434.968
440.8
446.708
452.622
458.432
464.054
469.562
474.913
480.109
484.961
489.699
494.05
498.597
502.045
508.139
191.943
223.623
250.584
279.612
306.297
331.722
354.318
373.081
388.178
399.953
409.036
415.967
421.49
426.25
430.848
435.675
440.804
445.976
451.19
456.514
461.876
467.173
472.323
477.383
482.308
487.108
491.603
496.001
500.035
504.267
507.464
513.137
191.917
227.708
263.689
298.253
326.905
352.63
374.537
392.065
405.781
416.325
424.414
430.552
435.404
439.559
443.562
447.762
452.251
456.822
461.461
466.237
471.077
475.884
480.576
485.203
489.715
494.13
498.274
502.339
506.065
509.991
512.943
518.207
192.402
234.301
280.798
319.205
348.447
373.606
394.318
410.42
422.738
432.084
439.21
444.582
448.788
452.362
455.801
459.421
463.322
467.333
471.435
475.691
480.038
484.38
488.635
492.844
496.962
501.006
504.811
508.556
511.986
515.618
518.337
523.211
193.911
244.394
301.417
341.665
370.454
394.454
413.647
428.215
439.141
447.324
453.511
458.125
461.691
464.694
467.586
470.655
474.002
477.483
481.073
484.831
488.702
492.596
496.43
500.24
503.978
507.666
511.144
514.579
517.726
521.076
523.573
528.076
196.745
258.88
324.926
365.228
392.862
415.278
432.723
445.677
455.21
462.242
467.491
471.336
474.251
476.675
479.019
481.547
484.358
487.321
490.412
493.684
497.088
500.541
503.963
507.382
510.753
514.094
517.253
520.389
523.261
526.339
528.623
532.768
200.842
278.321
350.935
389.896
415.862
436.323
451.819
463.077
471.191
477.059
481.35
484.401
486.639
488.462
490.244
492.224
494.494
496.938
499.527
502.313
505.252
508.264
511.273
514.303
517.309
520.309
523.154
525.994
528.599
531.408
533.486
537.282
205.921
303.17
379.498
415.972
439.745
457.855
471.192
480.661
487.314
491.992
495.296
497.52
499.051
500.242
501.435
502.846
504.557
506.462
508.534
510.821
513.283
515.844
518.431
521.066
523.703
526.356
528.886
531.428
533.767
536.309
538.185
541.632
211.869
334.38
411.014
443.778
464.667
479.988
490.977
498.583
503.756
507.236
509.543
510.925
511.727
512.262
512.837
513.646
514.767
516.1
517.623
519.382
521.339
523.424
525.568
527.787
530.04
532.333
534.537
536.771
538.838
541.104
542.778
545.867
219.645
373.733
445.349
472.941
490.147
502.356
510.933
516.717
520.491
522.859
524.24
524.838
524.95
524.848
524.805
524.995
525.496
526.218
527.147
528.331
529.737
531.3
532.957
534.721
536.554
538.454
540.304
542.202
543.979
545.946
547.409
550.112
233.216
420.767
480.013
501.401
514.558
523.727
530.099
534.303
536.929
538.428
539.116
539.144
538.756
538.169
537.621
537.267
537.186
537.304
537.624
538.197
539.003
539.985
541.096
542.341
543.694
545.14
546.584
548.092
549.537
551.154
552.383
554.635
264.869
467.563
510.903
526.416
535.934
542.543
547.127
550.114
551.922
552.872
553.185
552.968
552.399
551.642
550.88
550.24
549.79
549.48
549.321
549.369
549.619
550.034
550.582
551.273
552.095
553.024
553.999
555.045
556.098
557.286
558.242
559.929
335.558
506.411
536.045
546.828
553.466
558.087
561.299
563.383
564.627
565.253
565.412
565.177
564.672
564.011
563.324
562.703
562.199