/*--------------------------------*- C++ -*----------------------------------*\
| =========                 |                                                 |
| \\      /  F ield         | OpenFOAM: The Open Source CFD Toolbox           |
|  \\    /   O peration     | Version:  2.4.0                                 |
|   \\  /    A nd           | Web:      www.OpenFOAM.org                      |
|    \\/     M anipulation  |                                                 |
\*---------------------------------------------------------------------------*/
FoamFile
{
    version     2.0;
    format      ascii;
    class       volVectorField;
    location    "3000";
    object      U;
}
// * * * * * * * * * * * * * * * * * * * * * * * * * * * * * * * * * * * * * //

dimensions      [0 1 -1 0 0 0 0];

internalField   nonuniform List<vector> 
38400
(
(6.06888 -0.00111945 0.0116557)
(4.62483 -0.000402781 -0.000301291)
(4.61933 -0.000468585 -6.25082e-05)
(4.62977 -0.000231552 -4.84737e-05)
(4.75048 -2.44416e-05 -3.57544e-05)
(4.84592 9.30624e-05 -2.93146e-05)
(4.92744 0.000610708 -2.4512e-05)
(5.0656 0.000687612 -1.86551e-05)
(5.2972 0.000385362 -1.21751e-05)
(5.63583 0.000213668 -5.72095e-06)
(6.08371 0.000257701 2.08608e-06)
(6.61884 0.000481411 1.03829e-05)
(7.22592 0.000758898 1.92933e-05)
(7.89592 0.000971913 2.82759e-05)
(8.63114 0.0010318 3.67385e-05)
(9.42379 0.000977348 4.36501e-05)
(10.2765 0.000894705 5.01682e-05)
(11.19 0.00083337 6.01947e-05)
(12.1647 0.000737447 7.00039e-05)
(13.237 0.000629018 7.72538e-05)
(14.3914 0.000599363 8.44445e-05)
(15.6272 0.000572433 9.01623e-05)
(16.9403 0.000567549 9.59937e-05)
(18.3384 0.000569676 9.63534e-05)
(19.7698 0.00061648 9.83503e-05)
(21.3357 0.000580242 9.0919e-05)
(22.9181 0.000708952 9.29815e-05)
(24.7233 0.000631478 7.19948e-05)
(26.3394 0.000894095 7.90781e-05)
(28.4819 0.000558813 3.65413e-05)
(29.8086 0.00100343 3.68561e-05)
(33.5085 0.000990096 -4.68451e-05)
(6.06601 -0.00323368 0.011663)
(4.61595 -0.00113053 -0.000305564)
(4.57977 -0.00102704 -7.10074e-05)
(4.54819 -0.000983482 -5.22447e-05)
(4.64558 -0.000330686 -3.56086e-05)
(4.73242 0.000261903 -2.77139e-05)
(4.82974 0.00139368 -2.24695e-05)
(4.99972 0.00151879 -1.6647e-05)
(5.25612 0.000897105 -1.1222e-05)
(5.60863 0.000591682 -6.10241e-06)
(6.05301 0.000775769 -7.63572e-08)
(6.57162 0.00131907 6.31825e-06)
(7.15854 0.0019172 1.32477e-05)
(7.81227 0.00231135 2.03645e-05)
(8.53321 0.00241272 2.69966e-05)
(9.30715 0.00229064 3.24771e-05)
(10.1401 0.00209249 3.80967e-05)
(11.0449 0.00190789 4.73489e-05)
(12.0072 0.00165981 5.84641e-05)
(13.0577 0.00143689 6.63049e-05)
(14.1847 0.0013746 7.38977e-05)
(15.3944 0.00134447 8.04672e-05)
(16.6744 0.00139311 8.72917e-05)
(18.0355 0.0014312 8.91745e-05)
(19.4292 0.00157602 9.26621e-05)
(20.9502 0.00151093 8.78315e-05)
(22.4783 0.00184331 9.14769e-05)
(24.2302 0.00164487 7.35778e-05)
(25.7955 0.00232488 8.21758e-05)
(27.8822 0.00143903 4.25091e-05)
(29.1574 0.0026679 5.0736e-05)
(32.7469 0.00254828 -3.3895e-05)
(6.06129 -0.00522969 0.0116667)
(4.59294 -0.00161347 -0.000316398)
(4.48932 -0.00210701 -7.47583e-05)
(4.40208 -0.00224728 -4.77157e-05)
(4.48002 -0.000561928 -3.41886e-05)
(4.56786 0.00057061 -2.59421e-05)
(4.68519 0.00169356 -2.11676e-05)
(4.88437 0.00171159 -1.5976e-05)
(5.1593 0.00108313 -1.1494e-05)
(5.51656 0.000855566 -7.60974e-06)
(5.95168 0.00117902 -3.16158e-06)
(6.45415 0.00181142 1.49888e-06)
(7.02198 0.00239687 6.22612e-06)
(7.65481 0.00272772 1.05788e-05)
(8.34913 0.00280057 1.47162e-05)
(9.09632 0.00264848 1.88662e-05)
(9.90133 0.00238389 2.38851e-05)
(10.7859 0.00212355 3.12607e-05)
(11.7215 0.00186371 4.22427e-05)
(12.7317 0.00167589 5.1342e-05)
(13.814 0.00164277 5.92773e-05)
(14.9771 0.001663 6.6632e-05)
(16.2045 0.00179925 7.44682e-05)
(17.5101 0.00189417 7.82005e-05)
(18.8461 0.00212338 8.33424e-05)
(20.301 0.00208182 8.18297e-05)
(21.7511 0.00252804 8.78045e-05)
(23.4195 0.00227856 7.45775e-05)
(24.9043 0.00318974 8.48197e-05)
(26.9066 0.00198161 4.96783e-05)
(28.1044 0.00374552 6.85716e-05)
(31.5289 0.00348455 -1.74544e-05)
(6.05689 -0.00719118 0.0116601)
(4.53807 -0.00252621 -0.000327475)
(4.34705 -0.0041257 -6.88901e-05)
(4.21363 -0.00293251 -4.28321e-05)
(4.28521 -0.000195675 -3.19829e-05)
(4.38345 0.00103647 -2.39809e-05)
(4.51725 0.00181223 -1.87799e-05)
(4.73296 0.00167972 -1.47395e-05)
(5.01434 0.00111023 -1.16828e-05)
(5.36754 0.000942762 -8.74298e-06)
(5.79049 0.00127755 -5.03466e-06)
(6.27653 0.00183581 -1.62527e-06)
(6.82305 0.00230759 1.17054e-06)
(7.42818 0.00255451 3.69313e-06)
(8.08853 0.00258841 6.15859e-06)
(8.80134 0.00242354 8.99219e-06)
(9.57076 0.0021555 1.27878e-05)
(10.4155 0.00191373 1.95648e-05)
(11.3337 0.00174126 2.59645e-05)
(12.2774 0.00164296 3.69628e-05)
(13.3045 0.00167993 4.60514e-05)
(14.4095 0.00176488 5.34152e-05)
(15.5744 0.00196673 6.12155e-05)
(16.815 0.00211079 6.61169e-05)
(18.0835 0.00239366 7.23491e-05)
(19.4641 0.00239498 7.31026e-05)
(20.8295 0.00288599 8.11313e-05)
(22.4031 0.00264081 7.31485e-05)
(23.7906 0.00362968 8.54708e-05)
(25.6863 0.00229367 5.58669e-05)
(26.7943 0.00436355 8.40299e-05)
(30.0338 0.00395438 -2.16111e-06)
(6.054 -0.00895084 0.0116401)
(4.43247 -0.00502002 -0.000318794)
(4.16515 -0.00555718 -5.33524e-05)
(4.00205 -0.00251433 -3.75966e-05)
(4.07546 0.000348154 -2.75972e-05)
(4.18671 0.00127698 -1.87358e-05)
(4.33102 0.00165355 -1.43552e-05)
(4.5519 0.00140141 -1.14091e-05)
(4.83049 0.000922579 -9.90244e-06)
(5.17307 0.000813495 -8.68271e-06)
(5.57942 0.00110877 -6.41121e-06)
(6.0434 0.00155293 -4.09183e-06)
(6.56262 0.00191036 -2.19806e-06)
(7.13446 0.00207556 -7.87379e-07)
(7.75659 0.00207449 4.60863e-07)
(8.42921 0.00193156 2.14959e-06)
(9.15619 0.00172771 4.91226e-06)
(9.95276 0.00156624 9.33286e-06)
(10.8153 0.0014927 1.51324e-05)
(11.7207 0.00149496 2.44281e-05)
(12.6859 0.00160428 3.32516e-05)
(13.7255 0.00175261 4.03056e-05)
(14.8219 0.00200002 4.77765e-05)
(15.9924 0.00218004 5.30735e-05)
(17.1881 0.00248507 5.99198e-05)
(18.4911 0.0025316 6.2137e-05)
(19.7719 0.00301576 7.08015e-05)
(21.2526 0.00280671 6.65657e-05)
(22.5424 0.00375689 8.12092e-05)
(24.3195 0.00243816 5.79033e-05)
(25.3315 0.00463658 9.25018e-05)
(28.3706 0.0040429 7.99735e-06)
(6.04995 -0.0102208 0.011616)
(4.27289 -0.00911699 -0.000272096)
(3.95832 -0.00546294 -4.88628e-05)
(3.77576 -0.00164408 -3.29948e-05)
(3.85422 0.000574541 -1.95723e-05)
(3.97614 0.0010841 -1.07439e-05)
(4.12418 0.00118825 -7.60423e-06)
(4.34144 0.000903225 -7.13424e-06)
(4.60971 0.000564467 -8.04264e-06)
(4.93624 0.000558691 -8.64733e-06)
(5.32184 0.000841417 -7.36414e-06)
(5.75982 0.00118926 -5.65475e-06)
(6.24813 0.0014407 -4.33225e-06)
(6.78394 0.00154019 -3.44543e-06)
(7.36559 0.00152621 -2.89021e-06)
(7.99452 0.00142944 -2.07747e-06)
(8.67453 0.001314 -4.97687e-07)
(9.41827 0.00125282 2.43363e-06)
(10.2232 0.00127919 6.564e-06)
(11.0858 0.00136849 1.22477e-05)
(11.9884 0.00153386 2.08769e-05)
(12.9575 0.00172396 2.8329e-05)
(13.9808 0.00198757 3.52036e-05)
(15.0768 0.00218401 4.03596e-05)
(16.1966 0.00248223 4.72575e-05)
(17.4201 0.00256268 5.0315e-05)
(18.6169 0.00300507 5.90478e-05)
(20.0077 0.00284869 5.65684e-05)
(21.2055 0.00368706 7.21772e-05)
(22.8719 0.00248517 5.40454e-05)
(23.7914 0.00466496 9.28739e-05)
(26.6148 0.00387671 1.42157e-05)
(6.03528 -0.0107284 0.0116171)
(4.07464 -0.0131329 -0.000213028)
(3.7327 -0.00422067 -4.38328e-05)
(3.53636 -0.00100016 -2.33039e-05)
(3.62132 0.000392003 -9.89594e-06)
(3.7494 0.000587959 -2.56516e-06)
(3.89455 0.000553094 -1.66599e-06)
(4.10192 0.00034117 -3.81065e-06)
(4.35481 0.000190186 -7.0076e-06)
(4.66158 0.000306748 -9.1886e-06)
(5.02354 0.000586901 -8.73536e-06)
(5.43329 0.000855293 -7.42859e-06)
(5.88906 0.00102318 -6.31857e-06)
(6.38784 0.00107693 -5.78213e-06)
(6.92829 0.00106564 -5.72756e-06)
(7.51223 0.00102534 -5.58761e-06)
(8.1432 0.00100231 -4.90829e-06)
(8.83204 0.00103581 -3.12345e-06)
(9.57734 0.00113992 -1.65866e-07)
(10.3785 0.00128904 3.44258e-06)
(11.2309 0.0014894 8.48549e-06)
(12.1342 0.00169875 1.56461e-05)
(13.0811 0.00195341 2.32484e-05)
(14.0983 0.00214649 2.83417e-05)
(15.1385 0.0024166 3.4943e-05)
(16.2802 0.00251756 3.82806e-05)
(17.3927 0.00289399 4.72283e-05)
(18.6946 0.00279218 4.55942e-05)
(19.8034 0.00347961 6.0854e-05)
(21.3672 0.00245708 4.56607e-05)
(22.2007 0.00450727 8.58482e-05)
(24.8268 0.00353644 1.41586e-05)
(5.99518 -0.0110166 0.011693)
(3.85552 -0.0151163 -0.000191387)
(3.48949 -0.00286802 -3.33041e-05)
(3.2846 -0.000780735 -1.05123e-05)
(3.37578 -3.02959e-06 -2.74489e-06)
(3.50415 2.22027e-05 2.20061e-06)
(3.64077 -4.56491e-05 1.03492e-06)
(3.83406 -0.000134225 -3.26227e-06)
(4.06835 -9.87144e-05 -7.87518e-06)
(4.35302 0.000126037 -1.07253e-05)
(4.68951 0.000401829 -1.05361e-05)
(5.06975 0.000605245 -9.38013e-06)
(5.49225 0.000709656 -8.54608e-06)
(5.95385 0.000736244 -8.32665e-06)
(6.45334 0.0007389 -8.59797e-06)
(6.9924 0.000753175 -8.90564e-06)
(7.5742 0.000808096 -8.78326e-06)
(8.2081 0.000915084 -7.71108e-06)
(8.89339 0.00107104 -5.54606e-06)
(9.63042 0.00125178 -2.73552e-06)
(10.4163 0.00146022 8.82484e-07)
(11.2604 0.00166842 4.93448e-06)
(12.1433 0.00189738 1.12382e-05)
(13.0814 0.00207148 1.72783e-05)
(14.0387 0.00229652 2.42976e-05)
(15.0946 0.00240371 2.76063e-05)
(16.1207 0.00270316 3.64788e-05)
(17.3323 0.00264864 3.54108e-05)
(18.353 0.00317023 5.07125e-05)
(19.8161 0.00235904 3.67285e-05)
(20.5669 0.00419437 7.55656e-05)
(23.0181 0.00308646 1.02926e-05)
(5.91572 -0.0127423 0.0119223)
(3.61895 -0.0141862 -0.000227394)
(3.22904 -0.0019443 -1.4985e-05)
(3.01843 -0.00082675 -1.73178e-06)
(3.11409 -0.000379268 -1.18423e-06)
(3.23695 -0.000419938 1.66955e-06)
(3.36083 -0.000469871 -9.85532e-07)
(3.5373 -0.000436222 -6.03419e-06)
(3.75099 -0.000257235 -1.04626e-05)
(4.01202 3.36e-05 -1.28263e-05)
(4.32171 0.000289983 -1.23408e-05)
(4.67154 0.000438434 -1.13195e-05)
(5.0602 0.000498308 -1.08437e-05)
(5.48458 0.000512223 -1.09559e-05)
(5.94344 0.000532206 -1.15132e-05)
(6.43824 0.000589677 -1.19551e-05)
(6.97165 0.000699535 -1.19243e-05)
(7.55175 0.000852521 -1.10103e-05)
(8.17802 0.00103249 -9.04994e-06)
(8.85135 0.00121969 -6.54071e-06)
(9.56914 0.00141456 -3.3894e-06)
(10.3417 0.00160188 -1.14754e-07)
(11.1546 0.00179249 4.33418e-06)
(12.0273 0.00193932 8.19769e-06)
(12.9108 0.00211544 1.48801e-05)
(13.8805 0.00221774 1.89047e-05)
(14.8179 0.00243746 2.82351e-05)
(15.9353 0.0024186 2.73868e-05)
(16.8665 0.00277804 4.29603e-05)
(18.227 0.00218392 2.94867e-05)
(18.8962 0.00374275 6.75062e-05)
(21.1794 0.00256626 6.38866e-06)
(5.78982 -0.0173911 0.0123678)
(3.35906 -0.011177 -0.000275376)
(2.94906 -0.00145284 2.91152e-06)
(2.73429 -0.000900422 -8.3651e-07)
(2.83178 -0.000600021 -5.30637e-06)
(2.94461 -0.000653118 -3.77144e-06)
(3.05312 -0.000671434 -6.99873e-06)
(3.21104 -0.000553056 -1.12331e-05)
(3.40273 -0.000296899 -1.38223e-05)
(3.63883 8.85283e-06 -1.45414e-05)
(3.92039 0.000229645 -1.33994e-05)
(4.23859 0.000332474 -1.25524e-05)
(4.59242 0.000363521 -1.25285e-05)
(4.97885 0.000374037 -1.30351e-05)
(5.39671 0.000408775 -1.37113e-05)
(5.84725 0.000492731 -1.39195e-05)
(6.33268 0.000630693 -1.3501e-05)
(6.85998 0.000801092 -1.21769e-05)
(7.4286 0.000980311 -9.94663e-06)
(8.03951 0.00115408 -7.31547e-06)
(8.69019 0.00132197 -4.1399e-06)
(9.39062 0.00147723 -1.05423e-06)
(10.1279 0.00162251 2.87602e-06)
(10.9224 0.00173508 5.94518e-06)
(11.7311 0.0018627 1.11565e-05)
(12.6259 0.00195283 1.35911e-05)
(13.4847 0.00210123 2.22395e-05)
(14.5098 0.00210768 2.18211e-05)
(15.3511 0.00232548 3.76125e-05)
(16.605 0.00193154 2.44666e-05)
(17.1922 0.00317745 6.34414e-05)
(19.3058 0.00201822 3.58503e-06)
(5.62346 -0.0243902 0.0129319)
(3.06939 -0.00770301 -0.000269477)
(2.64753 -0.00117878 1.07939e-05)
(2.43223 -0.000872721 -6.30656e-06)
(2.52893 -0.000642867 -1.27296e-05)
(2.62899 -0.000688377 -1.17178e-05)
(2.72096 -0.00068185 -1.46882e-05)
(2.85925 -0.000527037 -1.68318e-05)
(3.02779 -0.000258511 -1.64374e-05)
(3.23749 1.84286e-05 -1.49418e-05)
(3.48906 0.000193144 -1.30694e-05)
(3.77365 0.000260021 -1.24738e-05)
(4.09062 0.000274505 -1.29853e-05)
(4.43711 0.000285857 -1.37857e-05)
(4.81217 0.000328903 -1.43429e-05)
(5.21687 0.000421484 -1.4018e-05)
(5.65309 0.000562202 -1.27515e-05)
(6.12695 0.000725063 -1.06441e-05)
(6.63778 0.000884785 -7.8352e-06)
(7.18656 0.00103146 -4.80068e-06)
(7.7707 0.0011649 -1.49703e-06)
(8.39952 0.0012843 1.58447e-06)
(9.06087 0.00138683 5.24172e-06)
(9.77487 0.00146552 7.94709e-06)
(10.5014 0.00154748 1.249e-05)
(11.3097 0.00161844 1.43772e-05)
(12.0851 0.00170782 2.1793e-05)
(13.0219 0.00172841 2.04229e-05)
(13.7831 0.00183668 3.46465e-05)
(14.9342 0.00161163 2.15574e-05)
(15.4459 0.00254022 6.14655e-05)
(17.3879 0.00148551 3.79171e-07)
(5.43462 -0.0309161 0.0132606)
(2.74792 -0.00492875 -0.000188499)
(2.3297 -0.000947843 9.03587e-06)
(2.12029 -0.000739952 -1.39008e-05)
(2.21362 -0.000558722 -1.99418e-05)
(2.29975 -0.00059269 -1.88556e-05)
(2.37528 -0.000573617 -2.10496e-05)
(2.49354 -0.000422676 -2.06351e-05)
(2.63818 -0.000187755 -1.71608e-05)
(2.82014 3.44521e-05 -1.36293e-05)
(3.03974 0.0001614 -1.12376e-05)
(3.28836 0.000202032 -1.09828e-05)
(3.56576 0.000208285 -1.19379e-05)
(3.86937 0.00022084 -1.27901e-05)
(4.1985 0.000264466 -1.29812e-05)
(4.55415 0.000350529 -1.18903e-05)
(4.93797 0.000474617 -9.60405e-06)
(5.35535 0.000612337 -6.58802e-06)
(5.80562 0.0007408 -3.17562e-06)
(6.28984 0.000853702 1.94046e-07)
(6.80538 0.000951338 3.53362e-06)
(7.36083 0.00103593 6.55659e-06)
(7.9448 0.00110216 9.87131e-06)
(8.57642 0.00115194 1.21475e-05)
(9.21815 0.00119865 1.59884e-05)
(9.93532 0.00124887 1.76342e-05)
(10.6206 0.00129288 2.39261e-05)
(11.4573 0.00131586 2.23705e-05)
(12.1291 0.00134816 3.45499e-05)
(13.1679 0.00124844 2.23268e-05)
(13.6077 0.00188234 6.18292e-05)
(15.3772 0.00100545 -3.64309e-06)
(5.22591 -0.0339375 0.0129795)
(2.40251 -0.00313748 -7.94854e-05)
(2.00752 -0.000711782 2.96282e-06)
(1.81098 -0.000555547 -1.95904e-05)
(1.89845 -0.000418169 -2.41858e-05)
(1.97065 -0.000442276 -2.27814e-05)
(2.0309 -0.000420687 -2.40703e-05)
(2.12963 -0.000296825 -2.15382e-05)
(2.25067 -0.000116956 -1.58829e-05)
(2.40456 4.35023e-05 -1.11166e-05)
(2.59125 0.00012829 -8.59449e-06)
(2.80257 0.000151205 -8.65236e-06)
(3.03864 0.000153862 -9.79473e-06)
(3.29719 0.000166057 -1.0459e-05)
(3.57777 0.00020381 -1.01362e-05)
(3.88133 0.000273578 -8.24208e-06)
(4.20934 0.000370353 -5.08728e-06)
(4.56642 0.00047442 -1.35544e-06)
(4.95204 0.000567733 2.38159e-06)
(5.36734 0.000646701 5.78634e-06)
(5.80987 0.000711758 8.93846e-06)
(6.28747 0.000766145 1.15811e-05)
(6.78965 0.000804407 1.42531e-05)
(7.33429 0.000832019 1.60067e-05)
(7.88682 0.000854196 1.89531e-05)
(8.5076 0.0008856 2.02214e-05)
(9.09747 0.000900501 2.51215e-05)
(9.82616 0.000919457 2.36426e-05)
(10.4017 0.000908235 3.31355e-05)
(11.3151 0.000886254 2.32209e-05)
(11.6762 0.00127281 6.03041e-05)
(13.2475 0.000613074 -9.31893e-06)
(4.9645 -0.0323426 0.0120116)
(2.04782 -0.00205422 -1.84439e-06)
(1.69271 -0.000487933 -2.04492e-06)
(1.51476 -0.000372775 -2.14346e-05)
(1.59416 -0.000275326 -2.45367e-05)
(1.65325 -0.000292128 -2.28782e-05)
(1.70006 -0.000273556 -2.34196e-05)
(1.78063 -0.000184121 -1.97008e-05)
(1.87947 -6.10633e-05 -1.31919e-05)
(2.0064 4.39501e-05 -8.19337e-06)
(2.16101 9.58515e-05 -5.93395e-06)
(2.33579 0.000107712 -6.24034e-06)
(2.53108 0.000108974 -7.35458e-06)
(2.74486 0.000119165 -7.70483e-06)
(2.97689 0.000147722 -6.91643e-06)
(3.22797 0.000197789 -4.51767e-06)
(3.49933 0.000265129 -9.3636e-07)
(3.79481 0.000335664 3.00231e-06)
(4.11393 0.000396775 6.62728e-06)
(4.45789 0.00044658 9.68699e-06)
(4.82447 0.000485555 1.22714e-05)
(5.22068 0.000516715 1.4288e-05)
(5.63715 0.00053564 1.60837e-05)
(6.09017 0.000548104 1.70665e-05)
(6.54884 0.000555266 1.89393e-05)
(7.06738 0.000571849 1.96567e-05)
(7.5566 0.000571022 2.29763e-05)
(8.16947 0.000583264 2.14609e-05)
(8.64347 0.000554673 2.79424e-05)
(9.41976 0.000570285 2.11534e-05)
(9.69967 0.000775265 5.2734e-05)
(11.0484 0.000330396 -1.76584e-05)
(4.60331 -0.0269987 0.0105362)
(1.69749 -0.00134377 3.27221e-05)
(1.39261 -0.000302289 -3.63631e-06)
(1.2372 -0.000222781 -1.93502e-05)
(1.30684 -0.00015878 -2.13422e-05)
(1.35402 -0.000170224 -1.9619e-05)
(1.38947 -0.00015663 -1.96628e-05)
(1.45366 -9.90076e-05 -1.57217e-05)
(1.53241 -2.35982e-05 -9.61897e-06)
(1.63447 3.83686e-05 -5.28872e-06)
(1.75918 6.71335e-05 -3.60092e-06)
(1.89987 7.26804e-05 -4.06588e-06)
(2.05697 7.35371e-05 -5.03073e-06)
(2.22874 8.10406e-05 -5.11043e-06)
(2.415 0.000100218 -4.08591e-06)
(2.61641 0.000132253 -1.64884e-06)
(2.83389 0.000174156 1.75264e-06)
(3.07048 0.000217011 5.30308e-06)
(3.32569 0.00025292 8.35154e-06)
(3.60065 0.000281031 1.07164e-05)
(3.89337 0.000301801 1.25042e-05)
(4.20985 0.000317362 1.37234e-05)
(4.54198 0.00032475 1.45813e-05)
(4.90409 0.000328508 1.47488e-05)
(5.26943 0.000328193 1.5578e-05)
(5.68512 0.000334968 1.55863e-05)
(6.07357 0.000328008 1.73715e-05)
(6.56794 0.000334082 1.56476e-05)
(6.94031 0.000304733 1.94477e-05)
(7.57315 0.000330367 1.55757e-05)
(7.77537 0.000420667 3.93373e-05)
(8.885 0.000154693 -2.62516e-05)
(4.10712 -0.0197307 0.00881512)
(1.36021 -0.000829133 4.35421e-05)
(1.11019 -0.000166682 -1.94093e-06)
(0.979803 -0.000116001 -1.41972e-05)
(1.03852 -7.76352e-05 -1.55249e-05)
(1.07505 -8.50422e-05 -1.39114e-05)
(1.10107 -7.63329e-05 -1.37002e-05)
(1.15071 -4.34823e-05 -1.03305e-05)
(1.21158 -2.77316e-06 -5.61787e-06)
(1.29115 2.94745e-05 -2.6089e-06)
(1.38865 4.34939e-05 -1.66667e-06)
(1.49838 4.57773e-05 -2.21193e-06)
(1.62079 4.65646e-05 -2.9466e-06)
(1.75441 5.15215e-05 -2.8216e-06)
(1.89911 6.29805e-05 -1.81392e-06)
(2.05539 8.11295e-05 2.52674e-07)
(2.22389 0.000104205 2.97347e-06)
(2.4069 0.000127237 5.67856e-06)
(2.60392 0.000145885 7.8445e-06)
(2.8159 0.000159839 9.35525e-06)
(3.04113 0.000169457 1.03206e-05)
(3.2845 0.000176028 1.07702e-05)
(3.53922 0.000177801 1.08732e-05)
(3.81732 0.000177711 1.0396e-05)
(4.09656 0.000175014 1.04103e-05)
(4.41619 0.000176732 9.77865e-06)
(4.7114 0.000169428 1.04333e-05)
(5.0934 0.000171624 8.43855e-06)
(5.37227 0.000149295 1.03717e-05)
(5.86599 0.000171265 8.38501e-06)
(6.00134 0.000200637 2.4115e-05)
(6.87348 6.25921e-05 -3.13855e-05)
(3.46259 -0.0124284 0.00701681)
(1.03938 -0.000453831 4.71789e-05)
(0.845235 -7.90318e-05 1.75026e-06)
(0.741427 -4.98457e-05 -7.37985e-06)
(0.788404 -2.95071e-05 -8.39442e-06)
(0.815457 -3.38776e-05 -7.00256e-06)
(0.833687 -2.90491e-05 -6.73158e-06)
(0.870411 -1.30407e-05 -4.47865e-06)
(0.91541 5.48112e-06 -1.74113e-06)
(0.974727 1.95518e-05 -3.84903e-07)
(1.0476 2.51882e-05 -2.31652e-07)
(1.12939 2.59737e-05 -7.72309e-07)
(1.22056 2.66779e-05 -1.23013e-06)
(1.3199 2.95645e-05 -9.80255e-07)
(1.42733 3.55093e-05 -1.724e-07)
(1.54318 4.43197e-05 1.24815e-06)
(1.6679 5.51537e-05 2.98386e-06)
(1.8031 6.56671e-05 4.59552e-06)
(1.94832 7.38464e-05 5.75768e-06)
(2.10432 7.96376e-05 6.41272e-06)
(2.26968 8.32705e-05 6.66667e-06)
(2.44818 8.54111e-05 6.5332e-06)
(2.63441 8.51463e-05 6.1706e-06)
(2.83797 8.40864e-05 5.35318e-06)
(3.04123 8.16009e-05 4.95758e-06)
(3.27527 8.1481e-05 3.94173e-06)
(3.48865 7.62903e-05 4.01933e-06)
(3.76953 7.68601e-05 1.89607e-06)
(3.96764 6.30849e-05 2.9667e-06)
(4.33397 7.76087e-05 1.77384e-06)
(4.4171 8.05584e-05 1.10455e-05)
(5.06834 2.2531e-05 -3.15049e-05)
(2.67027 -0.00639771 0.00515764)
(0.734141 -0.000201982 4.8141e-05)
(0.595327 -2.97037e-05 5.5867e-06)
(0.519228 -1.53748e-05 -6.93463e-07)
(0.553823 -6.51817e-06 -1.58079e-06)
(0.572377 -8.70807e-06 -4.80999e-07)
(0.58418 -6.52002e-06 -2.84254e-07)
(0.609348 -4.04574e-07 6.55259e-07)
(0.640162 5.97102e-06 1.34416e-06)
(0.681112 1.05356e-05 1.12647e-06)
(0.731538 1.2125e-05 6.22772e-07)
(0.788006 1.2326e-05 1.58035e-07)
(0.850874 1.28244e-05 -2.84199e-08)
(0.919266 1.42142e-05 2.66788e-07)
(0.993121 1.67011e-05 7.63782e-07)
(1.07266 2.00664e-05 1.43887e-06)
(1.15814 2.40109e-05 2.11954e-06)
(1.25063 2.76904e-05 2.62542e-06)
(1.34974 3.03889e-05 2.84726e-06)
(1.45604 3.21428e-05 2.77434e-06)
(1.56843 3.30618e-05 2.50404e-06)
(1.68964 3.34302e-05 2.0029e-06)
(1.81567 3.28412e-05 1.4585e-06)
(1.95357 3.20346e-05 5.87663e-07)
(2.09049 3.05556e-05 1.15605e-07)
(2.24909 3.01824e-05 -1.00382e-06)
(2.39174 2.73848e-05 -1.0415e-06)
(2.58287 2.76164e-05 -3.06973e-06)
(2.71283 2.07166e-05 -2.09462e-06)
(2.96436 2.86101e-05 -3.25179e-06)
(3.00949 2.35957e-05 1.56634e-06)
(3.4594 8.19928e-06 -2.70835e-05)
(1.73459 -0.0022447 0.00317732)
(0.44092 -6.0422e-05 4.30454e-05)
(0.356689 -6.93787e-06 7.39853e-06)
(0.30939 -1.79515e-06 3.75178e-06)
(0.330984 8.41149e-07 2.98425e-06)
(0.341815 4.77921e-08 3.72835e-06)
(0.348294 7.36973e-07 3.7967e-06)
(0.362977 2.16005e-06 3.65731e-06)
(0.380937 3.3055e-06 2.86772e-06)
(0.405 4.00448e-06 1.66576e-06)
(0.434702 4.12785e-06 8.427e-07)
(0.46788 4.15676e-06 5.16127e-07)
(0.504784 4.3936e-06 5.30984e-07)
(0.544862 4.87096e-06 7.79092e-07)
(0.588081 5.55891e-06 9.56838e-07)
(0.634559 6.34949e-06 1.00313e-06)
(0.684427 7.18207e-06 8.58548e-07)
(0.738286 7.89085e-06 5.52204e-07)
(0.795866 8.3347e-06 1.37233e-07)
(0.857517 8.5456e-06 -3.6926e-07)
(0.922539 8.55787e-06 -8.88088e-07)
(0.992586 8.46921e-06 -1.49044e-06)
(1.06518 8.13352e-06 -1.9896e-06)
(1.14469 7.8012e-06 -2.67833e-06)
(1.22318 7.22192e-06 -3.01612e-06)
(1.31466 7.052e-06 -3.95564e-06)
(1.39579 6.00724e-06 -3.90523e-06)
(1.50652 6.2047e-06 -5.51505e-06)
(1.57894 3.71369e-06 -4.45902e-06)
(1.72601 6.92178e-06 -5.7082e-06)
(1.74536 2.56603e-06 -3.7782e-06)
(2.01009 3.19628e-06 -1.89691e-05)
(0.661318 -0.00046037 0.00111388)
(0.155254 -2.90164e-07 2.28568e-05)
(0.125278 2.91399e-07 4.73189e-06)
(0.108007 9.08257e-07 3.56139e-06)
(0.115928 9.90713e-07 3.15577e-06)
(0.119622 9.08913e-07 3.45136e-06)
(0.121669 9.7928e-07 3.4359e-06)
(0.126673 9.26073e-07 2.98058e-06)
(0.132788 7.31147e-07 2.04077e-06)
(0.141058 5.35354e-07 1.04716e-06)
(0.151292 4.07754e-07 4.91083e-07)
(0.162694 3.91046e-07 3.6093e-07)
(0.17536 4.30954e-07 4.36117e-07)
(0.189091 4.79629e-07 5.51529e-07)
(0.203873 5.03581e-07 5.3545e-07)
(0.219744 4.77046e-07 3.4261e-07)
(0.236741 4.06623e-07 -2.02795e-08)
(0.255058 3.11395e-07 -4.63963e-07)
(0.274588 2.04936e-07 -9.03956e-07)
(0.295457 9.81039e-08 -1.32277e-06)
(0.317403 -1.03174e-08 -1.68159e-06)
(0.341017 -9.63519e-08 -2.03387e-06)
(0.365389 -2.01272e-07 -2.27673e-06)
(0.392125 -2.63132e-07 -2.57833e-06)
(0.418328 -3.98989e-07 -2.69498e-06)
(0.449104 -4.15264e-07 -3.13473e-06)
(0.475933 -6.59806e-07 -3.04146e-06)
(0.51338 -5.14665e-07 -3.77796e-06)
(0.536725 -1.06999e-06 -3.10332e-06)
(0.587005 -2.2179e-07 -3.87602e-06)
(0.59084 -2.12237e-06 -3.61795e-06)
(0.682016 2.96266e-07 -7.50174e-06)
(17.3969 -0.00367298 0.0592562)
(15.1865 -0.00183668 -0.000378104)
(15.1855 -0.00187969 -0.00010181)
(15.236 -0.00106086 -0.000105513)
(15.5217 -0.00028271 -0.000100518)
(15.7435 0.00020102 -8.77499e-05)
(15.9284 0.00177206 -0.000173735)
(16.2918 0.00205658 -0.000257896)
(16.9709 0.00119852 -0.00032579)
(18.0014 0.000685806 -0.000423984)
(19.3868 0.00081252 -0.00054495)
(21.0515 0.00147403 -0.000674836)
(22.9363 0.00229454 -0.000799356)
(25.0049 0.00292427 -0.00091132)
(27.257 0.00310846 -0.000998731)
(29.6585 0.00294765 -0.00106398)
(32.2105 0.00268626 -0.00113681)
(34.9427 0.00247981 -0.00121264)
(37.8431 0.00218591 -0.0012872)
(40.9674 0.00185898 -0.0013663)
(44.2597 0.0017486 -0.001442)
(47.7052 0.00165316 -0.00151505)
(51.286 0.00162563 -0.00158736)
(55.0066 0.00160957 -0.0016316)
(58.7345 0.00172256 -0.00169228)
(62.6816 0.0015987 -0.00173086)
(66.5611 0.00192524 -0.00180968)
(70.8006 0.00167593 -0.00177642)
(74.5765 0.0023593 -0.00190462)
(79.2921 0.0014323 -0.00169058)
(82.4002 0.0025493 -0.00240402)
(89.7532 0.0024689 -0.00179344)
(17.3851 -0.0106569 0.0592779)
(15.1527 -0.00527191 -0.000371006)
(15.0355 -0.00450045 -5.52929e-05)
(14.9297 -0.00378259 -1.96381e-05)
(15.129 -0.00142757 -6.69149e-05)
(15.32 0.000630538 -9.99768e-05)
(15.5621 0.00410694 -0.000166763)
(16.0384 0.00460966 -0.000242863)
(16.8046 0.00282725 -0.000326434)
(17.8834 0.0018918 -0.000428484)
(19.2574 0.00241096 -0.000536509)
(20.8671 0.00401315 -0.00064148)
(22.6861 0.0057938 -0.000738914)
(24.7034 0.00698284 -0.000828231)
(26.9128 0.0073041 -0.000904361)
(29.2598 0.00693776 -0.000968146)
(31.7571 0.00631279 -0.00104498)
(34.4544 0.00571849 -0.00113049)
(37.3366 0.00496844 -0.00120966)
(40.4124 0.00428442 -0.00128846)
(43.6442 0.00404759 -0.00136682)
(47.039 0.00390948 -0.00144434)
(50.5563 0.00400093 -0.00151805)
(54.211 0.00404879 -0.00156579)
(57.8785 0.00440552 -0.00162804)
(61.7643 0.00416075 -0.00166925)
(65.5728 0.00501054 -0.00173996)
(69.7555 0.00437371 -0.00171406)
(73.469 0.00615244 -0.00182727)
(78.1388 0.00369923 -0.00163026)
(81.1798 0.00679307 -0.00231754)
(88.4765 0.00640486 -0.00172312)
(17.366 -0.0172576 0.0593116)
(15.0645 -0.0079393 -0.000316479)
(14.6938 -0.00819688 0.000128757)
(14.3841 -0.00751109 4.89824e-05)
(14.5134 -0.00212922 -9.63246e-05)
(14.7101 0.00157048 -0.000138464)
(15.0258 0.00509407 -0.000172401)
(15.607 0.00530053 -0.000234464)
(16.4402 0.00346142 -0.000321911)
(17.538 0.00271424 -0.000418136)
(18.8832 0.00361411 -0.000507479)
(20.4414 0.0054807 -0.0005838)
(22.2001 0.00725406 -0.000651775)
(24.1533 0.00828812 -0.000719699)
(26.2824 0.00853147 -0.000785384)
(28.5524 0.00807245 -0.000848826)
(30.973 0.00725374 -0.000927556)
(33.6062 0.0064368 -0.00102347)
(36.419 0.00563552 -0.00111288)
(39.4021 0.00502882 -0.00119405)
(42.5339 0.00486024 -0.00127639)
(45.8315 0.00484338 -0.001356)
(49.2449 0.0051569 -0.001428)
(52.7989 0.00534183 -0.00147756)
(56.3695 0.00591414 -0.00153794)
(60.1602 0.00570717 -0.00158223)
(63.8646 0.00685672 -0.00164401)
(67.9622 0.00605012 -0.001629)
(71.579 0.0084485 -0.00171829)
(76.1763 0.00509164 -0.00154837)
(79.1101 0.00954771 -0.00218508)
(86.3141 0.00881909 -0.00162827)
(17.3492 -0.0237074 0.0593377)
(14.8538 -0.0115284 -9.25289e-05)
(14.1592 -0.0139867 0.000269855)
(13.6862 -0.00932183 -2.25377e-05)
(13.7969 -0.001025 -0.000159071)
(14.0353 0.00298696 -0.000160306)
(14.4135 0.00551804 -0.000161775)
(15.0567 0.00526215 -0.000215086)
(15.9167 0.00356455 -0.000300477)
(17.0052 0.00298053 -0.000385657)
(18.3135 0.00391126 -0.000453094)
(19.8208 0.00557086 -0.000505769)
(21.5136 0.00702455 -0.000555781)
(23.3818 0.00781716 -0.000609399)
(25.4085 0.0079475 -0.000667049)
(27.5786 0.00745435 -0.000732477)
(29.9 0.0066314 -0.000818061)
(32.4256 0.00586599 -0.000907799)
(35.131 0.00528515 -0.00101779)
(37.9865 0.00492591 -0.00111062)
(40.9929 0.00494814 -0.00118358)
(44.1655 0.00510398 -0.00126318)
(47.4507 0.00559196 -0.00133223)
(50.8818 0.00590469 -0.00138176)
(54.3323 0.00661626 -0.00143722)
(58.0052 0.00651287 -0.0014831)
(61.5836 0.00778359 -0.00153545)
(65.5749 0.00697562 -0.00153234)
(69.074 0.00959724 -0.00159597)
(73.5828 0.00587033 -0.00145785)
(76.385 0.0111171 -0.00202934)
(83.4665 0.0100609 -0.00151221)
(17.3398 -0.0294931 0.0593305)
(14.4504 -0.0187499 0.00034609)
(13.4808 -0.0177628 0.000214598)
(12.9124 -0.00797042 -0.000133591)
(13.0376 0.000649662 -0.000163488)
(13.3285 0.00376783 -0.000115889)
(13.7495 0.00511541 -0.000108492)
(14.4161 0.00447531 -0.000161716)
(15.2722 0.00302064 -0.000250955)
(16.3301 0.00260766 -0.000337357)
(17.5876 0.00343108 -0.000396647)
(19.0264 0.00476274 -0.000436367)
(20.6345 0.00587902 -0.000473348)
(22.4005 0.00642947 -0.000517058)
(24.3119 0.00645814 -0.000570652)
(26.3642 0.00602829 -0.000639159)
(28.565 0.00538677 -0.000729251)
(30.9572 0.00484727 -0.000828746)
(33.5223 0.00454135 -0.000931963)
(36.2377 0.00445235 -0.00102136)
(39.0983 0.00467611 -0.00109976)
(42.1256 0.00500493 -0.00117595)
(45.2656 0.00561576 -0.00123981)
(48.5566 0.00602556 -0.00128695)
(51.8689 0.00679537 -0.00133515)
(55.4073 0.0068099 -0.0013803)
(58.8445 0.00806599 -0.00142264)
(62.7096 0.00735333 -0.00143002)
(66.0722 0.00989204 -0.00146978)
(70.4766 0.00619773 -0.00136781)
(73.132 0.0117817 -0.00186679)
(80.0695 0.010343 -0.00139197)
(17.3262 -0.0338129 0.0592557)
(13.8455 -0.0294266 0.000809482)
(12.7188 -0.0171934 -1.40715e-05)
(12.0983 -0.00528062 -0.000168415)
(12.2512 0.00147569 -9.22641e-05)
(12.5871 0.00332543 -2.65245e-05)
(13.0279 0.00382857 -2.71226e-05)
(13.6884 0.00305407 -9.78488e-05)
(14.5155 0.0019865 -0.00020238)
(15.5249 0.00186657 -0.000296852)
(16.7182 0.00265053 -0.000353317)
(18.076 0.0036982 -0.000385009)
(19.5882 0.00450019 -0.000413371)
(21.2434 0.00485205 -0.000450577)
(23.0323 0.00483737 -0.000501934)
(24.9554 0.00453541 -0.000571695)
(27.0208 0.00414091 -0.000662905)
(29.2641 0.0038802 -0.000762377)
(31.6728 0.00385227 -0.000856024)
(34.2344 0.00399755 -0.000945822)
(36.9319 0.00437379 -0.00102429)
(39.7956 0.00482029 -0.00109156)
(42.7743 0.00547893 -0.00114773)
(45.9092 0.00593677 -0.00119082)
(49.0688 0.00669026 -0.00123088)
(52.4571 0.00679872 -0.00127301)
(55.7408 0.00794839 -0.00130468)
(59.463 0.00738005 -0.00132067)
(62.6741 0.00963911 -0.00133763)
(66.9517 0.0062482 -0.00127291)
(69.4479 0.0117878 -0.00170175)
(76.2226 0.00996227 -0.00127112)
(17.2682 -0.035963 0.0591861)
(13.1006 -0.0393047 0.000951258)
(11.9014 -0.0134192 -0.000182732)
(11.2527 -0.00323018 -9.34139e-05)
(11.4383 0.00114527 3.25127e-06)
(11.8034 0.00200933 5.65189e-05)
(12.2416 0.00205257 3.7015e-05)
(12.8749 0.00144403 -5.63487e-05)
(13.6559 0.000895276 -0.000175996)
(14.6045 0.00111888 -0.000275218)
(15.7243 0.00189054 -0.00032789)
(16.9939 0.00270203 -0.000353247)
(18.405 0.00325277 -0.000376054)
(19.9461 0.00346206 -0.000409898)
(21.6099 0.0034461 -0.000459555)
(23.3988 0.00329721 -0.000528055)
(25.3208 0.00315677 -0.000615544)
(27.4068 0.00315677 -0.000708695)
(29.6491 0.00334711 -0.000793083)
(32.0406 0.00365999 -0.000869592)
(34.568 0.00412634 -0.000943165)
(37.2534 0.00462471 -0.00100657)
(40.0533 0.00526545 -0.00105188)
(43.0151 0.00572352 -0.00108804)
(46.0058 0.00640739 -0.0011196)
(49.2294 0.00657792 -0.00115754)
(52.3465 0.00756021 -0.0011777)
(55.9103 0.00714554 -0.00119943)
(58.9576 0.00902176 -0.00119654)
(63.087 0.00609924 -0.00116858)