/*--------------------------------*- C++ -*----------------------------------*\
| =========                 |                                                 |
| \\      /  F ield         | OpenFOAM: The Open Source CFD Toolbox           |
|  \\    /   O peration     | Version:  2.4.0                                 |
|   \\  /    A nd           | Web:      www.OpenFOAM.org                      |
|    \\/     M anipulation  |                                                 |
\*---------------------------------------------------------------------------*/
FoamFile
{
    version     2.0;
    format      ascii;
    class       volScalarField;
    location    "3000";
    object      yPlus;
}
// * * * * * * * * * * * * * * * * * * * * * * * * * * * * * * * * * * * * * //

dimensions      [0 0 0 0 0 0 0];

internalField   uniform 0;

boundaryField
{
    inlet
    {
        type            calculated;
        value           uniform 0;
    }
    outlet
    {
        type            calculated;
        value           uniform 0;
    }
    middlePlane
    {
        type            symmetryPlane;
    }
    sideWall
    {
        type            calculated;
        value           nonuniform List<scalar> 
1920
(
0.291677
0.4048
0.458484
0.486656
0.502442
0.513181
0.52178
0.528663
0.533764
0.537365
0.540007
0.542287
0.544671
0.547465
0.550848
0.554899
0.559737
0.565428
0.572274
0.58038
0.590255
0.602285
0.61701
0.635289
0.658242
0.687517
0.725405
0.775365
0.842972
0.938432
1.07043
1.22954
1.41211
1.61494
1.82616
1.97107
1.85227
1.58562
1.39965
1.27232
1.17975
1.10916
1.05276
1.0064
0.967202
0.9339
0.905597
0.881096
0.858979
0.837771
0.816133
0.792909
0.766944
0.736879
0.700943
0.656806
0.601665
0.531745
0.438933
0.292671
0.141039
0.21747
0.268457
0.308612
0.341522
0.368402
0.390075
0.407735
0.422801
0.436391
0.448805
0.459704
0.468702
0.47579
0.481636
0.487101
0.493159
0.500081
0.508452
0.518059
0.529715
0.543742
0.560647
0.581653
0.608053
0.641958
0.685809
0.7427
0.818137
0.922264
1.05801
1.21029
1.37434
1.55533
1.75996
1.92015
1.82615
1.57009
1.38691
1.26045
1.16832
1.09852
1.04347
0.997562
0.95758
0.921667
0.88776
0.854429
0.820771
0.786138
0.750144
0.712337
0.671922
0.627554
0.577272
0.518999
0.451699
0.375616
0.288474
0.17262
0.126453
0.195625
0.24228
0.279836
0.311811
0.339341
0.362804
0.382678
0.399809
0.41511
0.429221
0.442406
0.454642
0.46574
0.475594
0.484432
0.492965
0.501451
0.510959
0.521329
0.533737
0.548737
0.566547
0.588715
0.616509
0.652208
0.698475
0.758647
0.839009
0.951237
1.09778
1.2602
1.43074
1.61614
1.82762
1.99009
1.89109
1.62007
1.42725
1.29555
1.20178
1.13069
1.07157
1.019
0.970128
0.923594
0.878861
0.835358
0.792916
0.751522
0.710837
0.670184
0.628463
0.584029
0.534745
0.478618
0.414953
0.344171
0.263897
0.15762
0.117274
0.182787
0.227603
0.264225
0.295946
0.323797
0.348
0.368793
0.38679
0.402816
0.417577
0.431581
0.44504
0.457976
0.470235
0.481685
0.492439
0.502809
0.513725
0.525146
0.538232
0.553901
0.572413
0.595199
0.623794
0.660528
0.708133
0.7701
0.853169
0.96999
1.12369
1.29438
1.47072
1.66038
1.87595
2.03946
1.93655
1.65521
1.45749
1.32423
1.22696
1.14917
1.0816
1.01997
0.962619
0.908711
0.857983
0.810478
0.765849
0.723564
0.682859
0.642763
0.601946
0.558615
0.510585
0.455973
0.394323
0.326199
0.249322
0.14807
0.121336
0.188358
0.233877
0.270809
0.302568
0.33026
0.354179
0.374606
0.392169
0.407693
0.421901
0.435324
0.448315
0.46111
0.473784
0.486172
0.498164
0.509892
0.52194
0.53446
0.548339
0.564552
0.583756
0.607204
0.636505
0.674117
0.722892
0.78646
0.871938
0.992841
1.15317
1.33229
1.51503
1.70922
1.92922
2.09655
1.9922
1.70119
1.49766
1.35901
1.25491
1.16893
1.09317
1.02452
0.961868
0.904662
0.852414
0.80444
0.759965
0.718159
0.67811
0.63874
0.598685
0.556126
0.508877
0.455056
0.394192
0.326785
0.250465
0.149484
0.123078
0.191258
0.237652
0.275364
0.307846
0.336189
0.360656
0.381489
0.399257
0.414738
0.428648
0.441532
0.453839
0.465985
0.478285
0.490822
0.503509
0.516281
0.529335
0.542907
0.55773
0.574661
0.594666
0.618869
0.648977
0.68759
0.737644
0.802906
0.890877
1.01593
1.18284
1.37053
1.56025
1.75979
1.98608
2.1601
2.05574
1.75244
1.53967
1.39181
1.27774
1.18253
1.09965
1.02637
0.961179
0.902812
0.850149
0.802152
0.757842
0.716294
0.67653
0.637454
0.597692
0.555428
0.508468
0.454923
0.394301
0.327085
0.250891
0.149939
0.123954
0.193047
0.240254
0.278782
0.312096
0.341258
0.366489
0.387995
0.406318
0.422191
0.436298
0.449168
0.461244
0.473002
0.484864
0.497057
0.509659
0.522723
0.536347
0.550721
0.566368
0.584056
0.604868
0.629871
0.660854
0.700527
0.751903
0.818893
0.909383
1.03854
1.21169
1.40768
1.60481
1.81046
2.04373
2.22378
2.11756
1.79769
1.57173
1.41268
1.28921
1.18712
1.10018
1.02484
0.95867
0.899926
0.847218
0.799337
0.755215
0.71388
0.674332
0.635476
0.595936
0.553901
0.507184
0.453888
0.393513
0.326529
0.25055
0.149816
0.126295
0.196932
0.245296
0.284849
0.319103
0.349107
0.375069
0.397216
0.416107
0.432482
0.446997
0.460161
0.472376
0.484058
0.495613
0.507256
0.519181
0.531697
0.545114
0.559743
0.575939
0.59432
0.615885
0.641726
0.673682
0.714494
0.767252
0.836008
0.929052
1.06232
1.24145
1.44546
1.65036
1.86217
2.10077
2.28306
2.17251
1.83367
1.59371
1.4245
1.29413
1.18798
1.09877
1.02229
0.955739
0.897017
0.844502
0.796895
0.753066
0.712025
0.672763
0.634184
0.59492
0.553172
0.506759
0.45378
0.393708
0.32698
0.251174
0.150476
0.129113
0.201607
0.251365
0.292146
0.327511
0.358483
0.385256
0.408086
0.427591
0.444547
0.459604
0.473239
0.485828
0.497723
0.509246
0.520553
0.531816
0.543427
0.555998
0.570187
0.586467
0.605348
0.627604
0.65428
0.687239
0.729175
0.783221
0.853569
0.948955
1.08599
1.27055
1.48216
1.69497
1.91195
2.15283
2.33474
2.21878
1.86248
1.61067
1.43411
1.29947
1.19113
1.101
1.02413
0.957399
0.898598
0.846058
0.798455
0.754647
0.713639
0.67442
0.6359
0.596718
0.555081
0.508799
0.455932
0.395891
0.329068
0.253026
0.151834
0.132864
0.207674
0.259109
0.301321
0.337938
0.369965
0.397585
0.421114
0.441243
0.458785
0.474411
0.488579
0.501629
0.513887
0.525588
0.536834
0.547664
0.558398
0.569767
0.58281
0.598489
0.617402
0.640121
0.667531
0.701379
0.744252
0.799298
0.870908
0.96819
1.10832
1.29765
1.5164
1.73746
1.95877
2.2001
2.38152
2.26196
1.88976
1.62793
1.44563
1.30776
1.19761
1.10644
1.02901
0.961976
0.903013
0.850387
0.802734
0.7589
0.717874
0.678656
0.64015
0.601002
0.559425
0.51321
0.460345
0.400144
0.332954
0.256321
0.154116
0.137365
0.214899
0.268284
0.312141
0.350172
0.383355
0.411881
0.436145
0.456931
0.475099
0.491322
0.506063
0.51964
0.532342
0.544378
0.55576
0.566407
0.576463
0.586572
0.59796
0.612196
0.630417
0.653131
0.681016
0.715535
0.759091
0.81484
0.887364
0.986068
1.12866
1.32218
1.54766
1.77765
2.00351
2.24527
2.42755
2.30679
1.91969
1.64868
1.46128
1.32043
1.20847
1.11617
1.03802
0.970527
0.911241
0.858366
0.810508
0.766496
0.725315
0.685956
0.647327
0.608086
0.566445
0.520164
0.467134
0.406533
0.338651
0.261027
0.157258
0.142186
0.222682
0.278204
0.323872
0.363457
0.397901
0.427408
0.452471
0.473977
0.49284
0.509743
0.525127
0.539308
0.552544
0.565017
0.576691
0.587391
0.59706
0.606108
0.615697
0.627793
0.644388
0.66642
0.694354
0.729275
0.773292
0.829526
0.902759
1.00256
1.14718
1.34454
1.57663
1.81602
2.04777
2.29014
2.47544
2.35547
1.95396
1.67405
1.48168
1.33782
1.22395
1.13035
1.0513
0.983122
0.923288
0.869953
0.821691
0.77731
0.735792
0.696123
0.657216
0.617733
0.575885
0.529391
0.476013
0.414758
0.34585
0.266842
0.161012
0.147326
0.230993
0.288805
0.336409
0.377642
0.413403
0.443928
0.469827
0.492097
0.511704
0.529341
0.545439
0.560285
0.574129
0.587129
0.599244
0.610203
0.619799
0.628181
0.636222
0.645898
0.65997
0.68043
0.707799
0.74281
0.787144
0.843794
0.917658
1.01845
1.16494
1.36603
1.60263
1.85365
2.09333
2.33725
2.52707
2.40966
1.99321
1.70455
1.50707
1.36002
1.24401
1.14889
1.06869
0.999589
0.938989
0.884982
0.836112
0.791178
0.749148
0.709008
0.669674
0.62981
0.587625
0.540786
0.486901
0.424765
0.354524
0.273762
0.165392
0.152659
0.239647
0.299869
0.349511
0.39246
0.429569
0.461123
0.487882
0.510955
0.531352
0.549766
0.566622
0.582194
0.596698
0.610313
0.622966
0.63435
0.644153
0.65233
0.659399
0.666931
0.677969
0.695825
0.721919
0.756592
0.801126
0.858189
0.932746
1.03457
1.18296
1.38777
1.62954
1.88949
2.14101
2.38758
2.58289
2.46954
2.03775
1.74003
1.53717
1.38666
1.26825
1.17135
1.08975
1.01951
0.957921
0.903043
0.853386
0.807728
0.765028
0.72427
0.684369
0.643993
0.601349
0.554047
0.499519
0.436308
0.364461
0.281614
0.170284
0.158147
0.248579
0.311305
0.363061
0.407776
0.446253
0.478846
0.506469
0.530354
0.551568
0.570793
0.588431
0.604751
0.619962
0.634224
0.647495
0.659444
0.66968
0.678051
0.684795
0.690948
0.699119
0.713544
0.737408
0.771213
0.815774
0.873288
0.948615
1.05159
1.202
1.41059
1.65749
1.92658
2.19108
2.44154
2.64316
2.53906
2.08908
1.78027
1.57164
1.41738
1.29627
1.19732
1.11408
1.04247
0.979696
0.92377
0.87316
0.826626
0.783116
0.741601
0.701009
0.660005
0.616793
0.568925
0.513645
0.449205
0.375519
0.290297
0.175631
0.16378
0.25777
0.323091
0.377033
0.423547
0.463395
0.497028
0.525534
0.550263
0.572306
0.592357
0.610816
0.627916
0.643857
0.658802
0.672716
0.685277
0.696075
0.704901
0.711855
0.717503
0.723646
0.734454
0.755
0.787308
0.831547
0.889509
0.965711
1.06997
1.22256
1.43495
1.68691
1.96467
2.24323
2.49921
2.70758
2.61102
2.14225
1.82457
1.61011
1.45177
1.32768
1.22642
1.1413
1.06811
1.00397
0.946828
0.895119
0.847575
0.803129
0.760748
0.719348
0.677608
0.63373
0.58521
0.529092
0.4633
0.387578
0.299722
0.181385
0.16954
0.267201
0.335209
0.39141
0.439767
0.481
0.515678
0.545078
0.570664
0.593574
0.614489
0.633794
0.651718
0.668436
0.684086
0.698661
0.711865
0.723276
0.732671
0.740114
0.745953
0.751186
0.759016
0.775539
0.805367
0.848844
0.90714
0.984299
1.08999
1.24491
1.4607
1.71805
2.00387
2.29693
2.56063
2.77606
2.68341
2.20161
1.87274
1.6522
1.48946
1.36213
1.25831
1.17108
1.09611
1.03044
0.971929
0.918992
0.870322
0.824829
0.781474
0.739169
0.696598
0.651964
0.602713
0.54569
0.478453
0.40053
0.309811
0.187502
0.17547
0.276948
0.34776
0.406313
0.456568
0.499206
0.534951
0.56528
0.591769
0.615578
0.6374
0.657612
0.676407
0.693934
0.710306
0.725528
0.739341
0.751369
0.761369
0.769422
0.775791
0.781041
0.787135
0.799696
0.825957
0.868107
0.926463
1.00459
1.11187
1.26925
1.4883
1.75515
2.05008
2.35164
2.6257
2.84841
2.77134
2.26878
1.92617
1.69762
1.53017
1.39933
1.29272
1.2032
1.12627
1.05888
0.998873
0.944585
0.89468
0.848048
0.803628
0.760329
0.716841
0.67137
0.621318
0.563337
0.494587
0.414321
0.320528
0.193968
0.181498
0.286912
0.36063
0.421622
0.473817
0.517875
0.554703
0.585982
0.613397
0.638147
0.660917
0.682059
0.701767
0.72014
0.737256
0.753143
0.767604
0.780287
0.79095
0.799643
0.806686
0.81248
0.818083
0.827622
0.849617
0.88961
0.947634
1.02668
1.13565
1.29564
1.51972
1.78583
2.08603
2.40686
2.69394
2.92426
2.85229
2.33363
1.98001
1.74554
1.57351
1.43893
1.32934
1.23733
1.15828
1.08904
1.0274
0.971639
0.920406
0.872547
0.826987
0.78262
0.73814
0.691753
0.640836
0.581853
0.511544
0.428824
0.331775
0.200716
0.187642
0.297101
0.373812
0.437305
0.491457
0.536932
0.574846
0.607096
0.635465
0.661168
0.684891
0.706993
0.727627
0.74686
0.764774
0.781383
0.796551
0.809975
0.821383
0.830811
0.838549
0.845082
0.851079
0.859017
0.876854
0.913662
0.970943
1.05072
1.16147
1.32422
1.55205
1.82251
2.1292
2.4625
2.76493
3.00349
2.94384
2.40595
2.03853
1.79615
1.61926
1.48071
1.36797
1.27332
1.19199
1.12077
1.05737
1.00004
0.94738
0.89822
0.85145
0.805952
0.760408
0.713042
0.661204
0.601185
0.529288
0.444024
0.343552
0.207757
0.193788
0.307353
0.38712
0.45316
0.509284
0.556174
0.595176
0.628407
0.657743
0.684422
0.70914
0.732222
0.753804
0.773971
0.792727
0.810136
0.826088
0.840312
0.852539
0.862733
0.871214
0.878514
0.885289
0.892958
0.907599
0.940458
0.996461
1.07666
1.18921
1.35484
1.58637
1.86088
2.17376
2.5172
2.83774
3.08548
3.04847
2.48771
2.10306
1.85076
1.66716
1.52426
1.4082
1.31078
1.22707
1.15376
1.08849
1.02949
0.975315
0.924774
0.876731
0.830047
0.783392
0.734991
0.682181
0.6211
0.547605
0.459738
0.355708
0.214991
0.200099
0.317895
0.400809
0.469451
0.527547
0.575833
0.615923
0.650145
0.680479
0.708164
0.733882
0.757962
0.780552
0.801672
0.821351
0.839601
0.856389
0.871462
0.884543
0.895554
0.904809
0.912874
0.920498
0.928747
0.9416
0.97047
1.02445
1.10479
1.21914
1.38776
1.62027
1.90658
2.22021
2.57253
2.91201
3.17023
3.14943
2.56871
2.16814
1.90658
1.717
1.56959
1.45005
1.34974
1.26355
1.18805
1.12082
1.06005
1.00428
0.952285
0.902907
0.854984
0.807175
0.757696
0.70387
0.641705
0.566615
0.476099
0.368373
0.222523
0.206274
0.3283
0.414383
0.485638
0.545692
0.59536
0.636541
0.671778
0.703113
0.731809
0.758545
0.783657
0.807258
0.82938
0.850029
0.869198
0.886874
0.90285
0.916853
0.928772
0.938838
0.947685
0.956162
0.96534
0.977774
1.00329
1.05455
1.13478
1.25083
1.4225
1.66121
1.94284
2.27264
2.62924
2.98626
3.25669
3.24186
2.64563
2.23128
1.96158
1.7667
1.61592
1.4929
1.38961
1.30085
1.22309
1.15384
1.09123
1.03379
0.980262
0.929486
0.880277
0.831274
0.780679
0.725811
0.662548
0.58588
0.492708
0.381206
0.23011
0.212754
0.339156
0.428493
0.502393
0.564385
0.6154
0.657652
0.693888
0.72622
0.755921
0.783673
0.809794
0.834402
0.857536
0.879173
0.89931
0.917937
0.934882
0.949887
0.962786
0.973749
0.98343
0.992761
1.00294
1.0159
1.03918
1.08743
1.16732
1.28496
1.45974
1.69869
1.99284
2.31977
2.68785
3.06127
3.34595
3.34784
2.73296
2.30139
2.02132
1.81947
1.66362
1.5373
1.43088
1.33948
1.25939
1.18805
1.12354
1.06436
1.00924
0.956995
0.906442
0.856196
0.804453
0.748512
0.684145
0.605919
0.510076
0.394672
0.238107
0.218709
0.349312
0.441821
0.518309
0.582177
0.6345
0.677808
0.715039
0.748371
0.77908
0.807841
0.83497
0.860607
0.884779
0.907449
0.928616
0.948262
0.966247
0.982317
0.996268
1.00823
1.01883
1.02907
1.04028
1.05427
1.07653
1.12186
1.20111
1.32023
1.49825
1.74351
2.03119
2.36918
2.74626
3.13484
3.43552
3.45423
2.82229
2.37307
2.08223
1.87301
1.71183
1.58173
1.47225
1.37812
1.29566
1.2222
1.15576
1.09479
1.03803
0.984269
0.932317
0.880793
0.827877
0.770845
0.705374
0.625631
0.527166
0.407859
0.245848
0.225494
0.360621
0.456455
0.535575
0.601287
0.654875
0.699213
0.737429
0.771748
0.80344
0.83318
0.861302
0.887967
0.913168
0.936902
0.959108
0.979795
0.998834
1.01597
1.031
1.04401
1.05558
1.06679
1.07905
1.09427
1.11661
1.15963
1.23804
1.35876
1.53834
1.7845
2.08568
2.42196
2.81265
3.21637
3.53959
3.56435
2.91624
2.44863
2.14659
1.9295
1.76253
1.628
1.51561
1.41861
1.3337
1.25806
1.18965
1.12686
1.0684
1.01306
0.959643
0.906779
0.852637
0.794485
0.727902
0.646668
0.545574
0.422201
0.254404
0.230866
0.370008
0.468922
0.550534
0.618011
0.672833
0.718201
0.757407
0.792704
0.825382
0.856114
0.885263
0.912969
0.939242
0.964078
0.987382
1.00913
1.02924
1.04746
1.06359
1.07771
1.09035
1.10262
1.11601
1.13256
1.15576
1.1972
1.27448
1.39667
1.58051
1.82779
2.12496
2.47281
2.87172
3.28859
3.62683
3.67085
3.00978
2.52372
2.2105
1.98538
1.81238
1.67323
1.55738
1.45771
1.37028
1.29244
1.22204
1.15743
1.09727
1.04033
0.985428
0.931189
0.875799
0.816512
0.748829
0.666166
0.562558
0.435255
0.261973
0.23846
0.38243
0.484803
0.569045
0.638273
0.694285
0.740643
0.7808
0.817041
0.850657
0.882339
0.912455
0.941151
0.968448
0.994329
1.01869
1.04146
1.06263
1.08194
1.0992
1.11447
1.12825
1.14164
1.15624
1.17421
1.19882
1.23978
1.31615
1.44009
1.62695
1.88139
2.18481
2.5325
2.9384
3.3685
3.7224
3.7845
3.11044
2.60487
2.28007
2.04652
1.86704
1.72281
1.60295
1.50062
1.41051
1.33036
1.25792
1.19145
1.12954
1.07095
1.0145
0.958797
0.90207
0.841583
0.772765
0.688682
0.582505
0.450951
0.271476
0.242259
0.389641
0.494773
0.581279
0.652108
0.709263
0.756598
0.797695
0.834871
0.869428
0.90207
0.93318
0.962899
0.991256
1.01823
1.04369
1.06757
1.08983
1.11028
1.12873
1.14522
1.16021
1.17483
1.19073
1.2102
1.2365
1.27774
1.35307
1.47818
1.66463
1.91925
2.22225
2.58225
2.99525
3.43706
3.80721
3.88749
3.20572
2.6809
2.3449
2.10323
1.91736
1.76801
1.64404
1.53843
1.44603
1.36355
1.28907
1.22075
1.15714
1.09695
1.03897
0.981834
0.923782
0.8621
0.792174
0.706749
0.598231
0.462858
0.278134
0.251862
0.40483
0.513771
0.603001
0.675527
0.733809
0.782101
0.824122
0.862216
0.89768
0.931242
0.96328
0.993948
1.02329
1.05127
1.07775
1.10266
1.12596
1.14751
1.16716
1.18492
1.20123
1.21719
1.23451
1.2556
1.28389
1.32651
1.4018
1.529
1.72102
1.98104
2.2909
2.64995
3.07274
3.52731
3.91462
4.02411
3.33258
2.78106
2.42973
2.1771
1.98279
1.82679
1.69735
1.58719
1.49112
1.40601
1.32931
1.25901
1.19359
1.13169
1.07205
1.01332
0.953758
0.890696
0.819522
0.732668
0.62155
0.481511
0.289734
0.250698
0.405141
0.515829
0.606737
0.680567
0.73984
0.788999
0.831858
0.870792
0.907116
0.94156
0.974523
1.00617
1.03652
1.06554
1.09306
1.11902
1.14333
1.16592
1.18665
1.20553
1.22304
1.24023
1.25893
1.2816
1.31185
1.35619
1.43126
1.55845
1.7514
2.01244
2.31557
2.68463
3.11163
3.57397
3.97845
4.10251
3.42034
2.84923
2.48705
2.22699
2.02663
1.8657
1.73216
1.6186
1.5199
1.43227
1.3535
1.2814
1.21435
1.15094
1.08989
1.02981
0.96898
0.904753
0.83251
0.74445
0.631342
0.488118
0.292433
0.267875
0.431693
0.548547
0.643632
0.71993
0.780862
0.831479
0.875779
0.916156
0.953941
0.989888
1.0244
1.05765
1.08967
1.12039
1.14968
1.17743
1.20356
1.22806
1.25086
1.27201
1.29191
1.3116
1.33296
1.35869
1.3927
1.44143
1.51971
1.64757
1.84407
2.11541
2.43521
2.81181
3.25603
3.73578
4.16499
4.2908
3.57802
2.97388
2.5966
2.32634
2.11754
1.94905
1.80893
1.68977
1.58656
1.49562
1.4138
1.33861
1.26886
1.203
1.13964
1.07732
1.01429
0.947997
0.873898
0.783933
0.667426
0.517505
0.311247
)
;
    }
    hot
    {
        type            calculated;
        value           nonuniform List<scalar> 
640
(
1.45177
1.45142
1.45086
1.45033
1.44999
1.4495
1.44774
1.44293
1.43333
1.418
1.39748
1.37382
1.34719
1.31306
1.26439
1.1943
1.09659
0.962988
0.776142
0.479234
1.26477
1.26355
1.2604
1.25285
1.23819
1.2157
1.18716
1.1548
1.11881
1.07789
1.03036
0.974913
0.911583
0.841607
0.766244
0.685909
0.599585
0.50391
0.39052
0.231731
1.26161
1.2562
1.24373
1.22387
1.19799
1.16786
1.13409
1.09652
1.05481
1.00804
0.955119
0.895957
0.8317
0.76371
0.69271
0.618494
0.539667
0.452913
0.350576
0.207766
1.26154
1.25038
1.23013
1.20351
1.17291
1.13927
1.10256
1.06259
1.01862
0.969494
0.914376
0.85373
0.789005
0.721597
0.652143
0.580353
0.504844
0.422476
0.326119
0.192685
1.27617
1.262
1.23931
1.21207
1.18203
1.1495
1.11423
1.07579
1.03325
0.985305
0.931128
0.871149
0.806753
0.739277
0.669348
0.59669
0.519895
0.435739
0.336856
0.199359
1.28709
1.27193
1.24962
1.22413
1.19635
1.16587
1.13214
1.09449
1.05193
1.00331
0.948014
0.886667
0.820777
0.751778
0.680351
0.606226
0.527984
0.442345
0.341834
0.202221
1.29607
1.28315
1.2638
1.24095
1.2151
1.18573
1.15224
1.11407
1.07038
1.02021
0.963113
0.899857
0.832071
0.761287
0.688241
0.612666
0.533111
0.446262
0.344579
0.20366
1.31222
1.30366
1.28854
1.26841
1.24391
1.21481
1.18083
1.14162
1.09655
1.04476
0.985866
0.920662
0.850832
0.777999
0.702948
0.625425
0.543944
0.455119
0.351262
0.207508
1.33986
1.33465
1.3223
1.3036
1.27947
1.24989
1.21484
1.17421
1.12748
1.07387
1.01298
0.945558
0.873357
0.798094
0.720649
0.640785
0.556986
0.46578
0.359305
0.212137
1.37985
1.37652
1.36517
1.34661
1.32199
1.29137
1.25493
1.21269
1.16422
1.10875
1.04582
0.976087
0.901303
0.823307
0.74309
0.660452
0.573845
0.479692
0.369897
0.218299
1.4312
1.42758
1.41558
1.39628
1.3706
1.33859
1.30053
1.25655
1.20627
1.14889
1.08385
1.01166
0.934049
0.852989
0.769609
0.683772
0.593899
0.496288
0.38257
0.225696
1.49008
1.48475
1.47142
1.45103
1.42383
1.39002
1.35005
1.3041
1.25184
1.19242
1.12512
1.05028
0.969607
0.885185
0.798324
0.708971
0.615516
0.514141
0.396173
0.233616
1.55384
1.54658
1.53175
1.5099
1.48081
1.44489
1.40276
1.35467
1.3003
1.23874
1.16911
1.09153
1.00762
0.919628
0.829036
0.735907
0.638615
0.533202
0.410688
0.242061
1.62082
1.61221
1.59588
1.57208
1.54068
1.50236
1.45784
1.40745
1.35084
1.28706
1.21502
1.13463
1.04738
0.955637
0.861117
0.764009
0.662679
0.553036
0.425771
0.250823
1.69068
1.68106
1.66283
1.63667
1.60274
1.56182
1.51475
1.46191
1.40296
1.33688
1.2624
1.17916
1.08851
0.992906
0.894305
0.793053
0.687526
0.573493
0.441312
0.25984
1.76223
1.75129
1.73134
1.70304
1.66664
1.6231
1.57338
1.51797
1.45658
1.38812
1.31116
1.22505
1.13094
1.03137
0.928544
0.822994
0.713112
0.594539
0.457284
0.269097
1.83528
1.82306
1.80147
1.77114
1.73236
1.68618
1.63372
1.57561
1.51164
1.4407
1.36121
1.2722
1.17459
1.07096
0.963767
0.853763
0.739377
0.616114
0.473635
0.278559
1.90961
1.89719
1.87481
1.84234
1.80095
1.75192
1.69652
1.6355
1.56875
1.49517
1.41303
1.32106
1.21988
1.11205
1.0003
0.885641
0.766547
0.638401
0.490502
0.288302
1.98484
1.97195
1.94835
1.91585
1.87152
1.81957
1.76116
1.69711
1.62742
1.55106
1.46618
1.3712
1.26639
1.15426
1.03781
0.918311
0.794339
0.661151
0.507687
0.298206
2.06359
2.04957
2.02382
1.98738
1.9418
1.88848
1.82724
1.76016
1.68746
1.60821
1.52051
1.42249
1.31404
1.19755
1.07626
0.951781
0.822781
0.684408
0.52523
0.308301
2.14398
2.12852
2.10053
2.06142
2.01293
1.95681
1.89398
1.824
1.74825
1.66603
1.57543
1.47433
1.36223
1.24134
1.11514
0.985564
0.851431
0.707783
0.542825
0.3184
2.22558
2.20894
2.1788
2.13711
2.08577
2.02658
1.96114
1.88921
1.8105
1.72524
1.63166
1.52745
1.4117
1.28637
1.15515
1.02032
0.880897
0.731813
0.560902
0.328769
2.30767
2.28949
2.257
2.21268
2.15857
2.09643
2.02785
1.95381
1.87258
1.78432
1.68771
1.58036
1.46096
1.3312
1.19491
1.05479
0.910029
0.755496
0.578662
0.338915
2.39051
2.37069
2.3359
2.28907
2.23238
2.16753
2.09601
2.01901
1.93595
1.84489
1.74528
1.6348
1.51178
1.37761
1.2362
1.09066
0.940404
0.780234
0.597247
0.349561
2.47033
2.44896
2.41193
2.36263
2.30339
2.23597
2.1617
2.0817
1.99632
1.90293
1.80044
1.68685
1.56029
1.42179
1.27537
1.12451
0.968899
0.803301
0.614468
0.359346
2.55365
2.53047
2.49096
2.43907
2.37733
2.30745
2.23068
2.14792
2.05973
1.96444
1.85923
1.7426
1.61254
1.46973
1.31819
1.1618
1.00053
0.829108
0.633891
0.370494
2.63223
2.60685
2.56433
2.50942
2.44488
2.3724
2.29307
2.20763
2.11654
2.01909
1.91143
1.79188
1.65842
1.51146
1.35505
1.19346
1.02698
0.850337
0.649597
0.379321
2.71892
2.69167
2.64625
2.58819
2.52086
2.44591
2.36429
2.27652
2.18284
2.08292
1.97324
1.8509
1.71409
1.56293
1.40138
1.23409
1.06166
0.878808
0.671166
0.391798
2.78838
2.75944
2.71136
2.65004
2.57958
2.50192
2.41779
2.32757
2.23132
2.12872
2.01708
1.89218
1.75227
1.59733
1.43133
1.2593
1.08222
0.894871
0.682703
0.398039
2.88252
2.85201
2.80167
2.7374
2.66358
2.58309
2.49667
2.40435
2.30593
2.20094
2.08727
1.95996
1.81684
1.65771
1.48637
1.30815
1.12443
0.929937
0.709594
0.413818
2.92573
2.8936
2.84086
2.77385
2.69707
2.6138
2.52491
2.43023
2.32943
2.22192
2.10605
1.97676
1.83111
1.66894
1.49425
1.31276
1.12624
0.929628
0.707954
0.411905
3.08503
3.04977
2.99252
2.9207
2.83868
2.74944
2.65548
2.55692
2.45267
2.34167
2.22232
2.08988
1.93977
1.77146
1.58859
1.39724
1.19982
0.991249
0.755597
0.440129
)
;
    }
    cold
    {
        type            calculated;
        value           nonuniform List<scalar> 
640
(
2.09781
2.09558
2.09315
2.09087
2.0871
2.07921
2.06457
2.04095
2.00669
1.9603
1.90019
1.82484
1.73317
1.62505
1.50123
1.362
1.20534
1.02445
0.802152
0.481195
2.08345
2.07946
2.07165
2.0567
2.0313
1.99369
1.94332
1.88066
1.80598
1.71933
1.61947
1.50513
1.37696
1.23863
1.0956
0.951805
0.807447
0.65868
0.495348
0.283857
2.1243
2.10982
2.08318
2.04476
1.99468
1.93436
1.86585
1.79022
1.70726
1.61611
1.51456
1.40081
1.27561
1.14289
1.00787
0.873694
0.740021
0.602906
0.452896
0.259217
2.13013
2.10574
2.06485
2.01183
1.95013
1.88215
1.80923
1.73153
1.6481
1.5573
1.45646
1.34374
1.22016
1.09009
0.958746
0.82907
0.700556
0.569418
0.426713
0.24353
2.1378
2.11063
2.06677
2.01192
1.94949
1.88159
1.80917
1.73211
1.64933
1.55907
1.4586
1.34611
1.22274
1.09292
0.961889
0.832503
0.70418
0.573042
0.430021
0.245876
2.14369
2.11687
2.0736
2.01935
1.95736
1.88967
1.81727
1.74002
1.6569
1.56613
1.46497
1.35165
1.2274
1.09673
0.964942
0.834952
0.706164
0.574651
0.431262
0.246645
2.15118
2.12472
2.0818
2.02767
1.96559
1.89759
1.82476
1.74699
1.66322
1.57168
1.46964
1.35534
1.23004
1.0984
0.96584
0.835294
0.706154
0.57445
0.431011
0.246468
2.16236
2.13615
2.09341
2.03929
1.97701
1.90864
1.83531
1.75695
1.67249
1.58019
1.47729
1.36202
1.23571
1.1031
0.969713
0.838506
0.708834
0.57668
0.432774
0.247576
2.19019
2.16323
2.11938
2.06401
2.00042
1.9307
1.85603
1.77644
1.69074
1.59718
1.49294
1.37618
1.24822
1.11388
0.978827
0.846124
0.715137
0.581765
0.436618
0.249839
2.22636
2.19881
2.15403
2.09746
2.03254
1.96136
1.88518
1.80416
1.717
1.62194
1.51615
1.39759
1.26756
1.1309
0.993513
0.858614
0.725599
0.59028
0.44307
0.253625
2.27339
2.24521
2.19938
2.14145
2.07492
2.00197
1.92391
1.84103
1.75211
1.65517
1.54744
1.42671
1.29406
1.15442
1.01392
0.876023
0.740181
0.602124
0.452012
0.258829
2.33164
2.30272
2.25562
2.19603
2.12751
2.05237
1.97194
1.88668
1.79556
1.69632
1.58624
1.46289
1.32707
1.18371
1.03926
0.897542
0.758102
0.616564
0.462814
0.265044
2.40078
2.37099
2.32243
2.2609
2.19004
2.1123
2.02909
1.94094
1.84713
1.74522
1.63237
1.50597
1.36645
1.2187
1.06952
0.923169
0.779362
0.633621
0.475504
0.272292
2.47979
2.44896
2.39872
2.33507
2.26168
2.18098
2.09458
2.00311
1.90606
1.80113
1.68513
1.55528
1.41158
1.25881
1.10415
0.952403
0.803512
0.652896
0.489775
0.280389
2.56765
2.53566
2.48354
2.41755
2.34145
2.25761
2.16773
2.07256
1.97179
1.86346
1.74393
1.61025
1.46196
1.30361
1.14279
0.984927
0.830275
0.674179
0.505458
0.289239
2.66359
2.63025
2.57602
2.50744
2.42843
2.34138
2.24785
2.14873
2.04386
1.93162
1.80829
1.67047
1.5172
1.35275
1.18514
1.02049
0.859445
0.697284
0.522415
0.298768
2.76689
2.73206
2.67546
2.60403
2.52186
2.43144
2.33426
2.23102
2.12181
2.00519
1.87781
1.73552
1.57695
1.40596
1.23094
1.05886
0.890823
0.722047
0.540525
0.308897
2.87726
2.84071
2.78148
2.70685
2.62122
2.5272
2.42627
2.319
2.20527
2.08401
1.95219
1.80519
1.64101
1.46308
1.28011
1.09996
0.92433
0.748407
0.559743
0.319608
2.99426
2.95577
2.89352
2.81534
2.72591
2.62798
2.5231
2.41177
2.29362
2.16755
2.0309
1.87903
1.70899
1.52375
1.33232
1.14352
0.959709
0.776145
0.579889
0.330792
3.11791
3.0772
3.01153
2.92938
2.83568
2.73347
2.62437
2.50887
2.38642
2.25555
2.11383
1.9569
1.7808
1.58796
1.38758
1.18954
0.997004
0.805287
0.600987
0.342465
3.249
3.20516
3.13511
3.0483
2.94988
2.84296
2.72929
2.60937
2.48257
2.34709
2.20025
2.03801
1.85578
1.65511
1.44539
1.23759
1.03579
0.835481
0.622769
0.354466
3.38964
3.34202
3.26617
3.17308
3.06899
2.95682
2.83812
2.71347
2.58218
2.44223
2.29037
2.12266
1.93424
1.72559
1.50618
1.28806
1.07646
0.867077
0.645504
0.366965
3.53917
3.48733
3.40496
3.30419
3.19242
3.07383
2.94956
2.81978
2.68369
2.5392
2.38256
2.20937
2.01475
1.79808
1.56873
1.3399
1.11807
0.899235
0.668539
0.379564
3.69967
3.64329
3.55373
3.4444
3.32365
3.19655
3.06552
2.92998
2.78877
2.63953
2.47824
2.29966
2.09884
1.87413
1.63462
1.3946
1.16196
0.933146
0.69282
0.392846
3.8674
3.80632
3.70922
3.59067
3.45997
3.32301
3.1831
3.04081
2.8939
2.73961
2.57362
2.38987
2.18289
1.9503
1.70062
1.4492
1.2055
0.96655
0.716559
0.405716
4.04723
3.9818
3.8773
3.74918
3.60773
3.45984
3.30951
3.1583
3.00473
2.84491
2.67399
2.4852
2.27212
2.03171
1.7717
1.50834
1.25288
1.00305
0.742622
0.419944
4.22722
4.15791
4.04672
3.9095
3.75716
3.59757
3.43583
3.27421
3.11232
2.94626
2.77007
2.5763
2.35726
2.10931
1.83923
1.56409
1.29699
1.03653
0.766155
0.432548
4.42223
4.3499
4.23323
4.08805
3.92534
3.75363
3.57919
3.40557
3.23319
3.05926
2.87704
2.67798
2.45308
2.19757
1.9171
1.6293
1.34935
1.07691
0.795029
0.448359
4.60279
4.52772
4.4063
4.25438
4.08255
3.89949
3.71241
3.52623
3.34251
3.15931
2.97036
2.76581
2.53523
2.27254
1.9824
1.68282
1.39104
1.10793
0.816352
0.459479
4.81621
4.73918
4.61438
4.45748
4.27847
4.08526
3.88514
3.68446
3.48671
3.29126
3.09297
2.88159
2.64477
2.37434
2.07344
1.75996
1.45344
1.15638
0.851262
0.47878
4.96844
4.88905
4.76041
4.59853
4.41316
4.21173
4.00128
3.78867
3.57895
3.37289
3.16608
2.94845
2.7062
2.42946
2.12021
1.79653
1.47989
1.17416
0.861986
0.483362
5.28937
5.2072
5.07433
4.90715
4.71517
4.50469
4.28095
4.04975
3.81749
3.58873
3.36234
3.12991
2.8766
2.58843
2.26365
1.91917
1.57961
1.25187
0.918231
0.5147
)
;
    }
}


// ************************************************************************* //
