#         Time      average
            1  1.13352e+07
            2  1.15611e+07
            3  1.16967e+07
            4   1.1778e+07
            5  1.18268e+07
            6  1.18561e+07
            7  1.18736e+07
            8  1.18842e+07
            9  1.18905e+07
           10  1.18943e+07
           11  1.18966e+07
           12   1.1898e+07
           13  1.18988e+07
           14  1.18993e+07
           15  1.18996e+07
           16  1.18997e+07
           17  1.18998e+07
           18  1.18999e+07
           19  1.18999e+07
           20     1.19e+07
           21     1.19e+07
           22     1.19e+07
           23     1.19e+07
           24     1.19e+07
           25     1.19e+07
           26     1.19e+07
           27     1.19e+07
           28     1.19e+07
           29     1.19e+07
           30     1.19e+07
           31     1.19e+07
           32     1.19e+07
           33     1.19e+07
           34     1.19e+07
           35     1.19e+07
           36     1.19e+07
           37     1.19e+07
           38   1.0855e+07
           39  9.83163e+06
           40  9.54379e+06
           41  9.98622e+06
           42   1.0554e+07
           43   1.0794e+07
           44  1.06762e+07
           45  1.04346e+07
           46  1.02928e+07
           47  1.03193e+07
           48  1.04264e+07
           49  1.05075e+07
           50   1.0514e+07
           51  1.04737e+07
           52  1.04333e+07
           53   1.0424e+07
           54  1.04443e+07
           55  1.04694e+07
           56  1.04818e+07
           57  1.04786e+07
           58  1.04692e+07
           59   1.0463e+07
           60  1.04645e+07
           61  1.04716e+07
           62  1.04789e+07
           63  1.04832e+07
           64   1.0484e+07
           65  1.04832e+07
           66   1.0483e+07
           67  1.04843e+07
           68  1.04872e+07
           69  1.04902e+07
           70  1.04925e+07
           71  1.04942e+07
           72  1.04953e+07
           73  1.04965e+07
           74  1.04982e+07
           75     1.05e+07
           76  1.05018e+07
           77  1.05034e+07
           78   1.0505e+07
           79  1.05065e+07
           80   1.0508e+07
           81  1.05093e+07
           82   1.0511e+07
           83  1.05125e+07
           84  1.05138e+07
           85  1.05153e+07
           86  1.05169e+07
           87  1.05185e+07
           88  1.05198e+07
           89  1.05211e+07
           90  1.05226e+07
           91   1.0524e+07
           92  1.05254e+07
           93  1.05267e+07
           94  1.05281e+07
           95  1.05295e+07
           96  1.05308e+07
           97  1.05321e+07
           98  1.05334e+07
           99  1.05348e+07
          100  1.05361e+07
          101  1.05374e+07
          102  1.05386e+07
          103  1.05398e+07
          104  1.05411e+07
          105  1.05425e+07
          106  1.05438e+07
          107   1.0545e+07
          108  1.05463e+07
          109  1.05475e+07
          110  1.05489e+07
          111    1.055e+07
          112  1.05514e+07
          113  1.05526e+07
          114  1.05538e+07
          115  1.05549e+07
          116  1.05562e+07
          117  1.05575e+07
          118  1.05588e+07
          119  1.05601e+07
          120  1.05613e+07
          121  1.05625e+07
          122  1.05636e+07
          123   1.0565e+07
          124  1.05662e+07
          125  1.05674e+07
          126  1.05685e+07
          127  1.05697e+07
          128   1.0571e+07
          129  1.05722e+07
          130  1.05734e+07
          131  1.05745e+07
          132  1.05756e+07
          133  1.05769e+07
          134  1.05781e+07
          135  1.05793e+07
          136  1.05806e+07
          137  1.05817e+07
          138  1.05828e+07
          139   1.0584e+07
          140  1.05852e+07
          141  1.05864e+07
          142  1.05876e+07
          143  1.05889e+07
          144  1.05901e+07
          145  1.05911e+07
          146  1.05922e+07
          147  1.05933e+07
          148  1.05945e+07
          149  1.05957e+07
          150  1.05969e+07
          151   1.0598e+07
          152  1.05992e+07
          153  1.06003e+07
          154  1.06013e+07
          155  1.06024e+07
          156  1.06035e+07
          157  1.06046e+07
          158  1.06058e+07
          159  1.06069e+07
          160  1.06079e+07
          161  1.06091e+07
          162  1.06101e+07
          163  1.06111e+07
          164  1.06122e+07
          165  1.06134e+07
          166  1.06145e+07
          167  1.06154e+07
          168  1.06165e+07
          169  1.06176e+07
          170  1.06187e+07
          171  1.06197e+07
          172  1.06208e+07
          173  1.06219e+07
          174  1.06228e+07
          175  1.06239e+07
          176   1.0625e+07
          177  1.06261e+07
          178   1.0627e+07
          179  1.06281e+07
          180  1.06291e+07
          181  1.06302e+07
          182  1.06311e+07
          183  1.06322e+07
          184  1.06333e+07
          185  1.06344e+07
          186  1.06354e+07
          187  1.06364e+07
          188  1.06373e+07
          189  1.06384e+07
          190  1.06395e+07
          191  1.06405e+07
          192  1.06415e+07
          193  1.06425e+07
          194  1.06434e+07
          195  1.06444e+07
          196  1.06455e+07
          197  1.06466e+07
          198  1.06475e+07
          199  1.06485e+07
          200  1.06495e+07
          201  1.06506e+07
          202  1.06515e+07
          203  1.06525e+07
          204  1.06535e+07
          205  1.06545e+07
          206  1.06555e+07
          207  1.06566e+07
          208  1.06576e+07
          209  1.06586e+07
          210  1.06596e+07
          211  1.06605e+07
          212  1.06616e+07
          213  1.06626e+07
          214  1.06636e+07
          215  1.06645e+07
          216  1.06655e+07
          217  1.06665e+07
          218  1.06675e+07
          219  1.06685e+07
          220  1.06695e+07
          221  1.06704e+07
          222  1.06714e+07
          223  1.06723e+07
          224  1.06734e+07
          225  1.06743e+07
          226  1.06753e+07
          227  1.06762e+07
          228  1.06773e+07
          229  1.06782e+07
          230  1.06791e+07
          231  1.06801e+07
          232   1.0681e+07
          233   1.0682e+07
          234   1.0683e+07
          235   1.0684e+07
          236  1.06849e+07
          237  1.06858e+07
          238  1.06867e+07
          239  1.06876e+07
          240  1.06885e+07
          241  1.06895e+07
          242  1.06904e+07
          243  1.06913e+07
          244  1.06923e+07
          245  1.06931e+07
          246  1.06941e+07
          247   1.0695e+07
          248  1.06958e+07
          249  1.06968e+07
          250  1.06976e+07
          251  1.06985e+07
          252  1.06993e+07
          253  1.07002e+07
          254  1.07012e+07
          255   1.0702e+07
          256  1.07029e+07
          257  1.07037e+07
          258  1.07046e+07
          259  1.07054e+07
          260  1.07064e+07
          261  1.07072e+07
          262   1.0708e+07
          263  1.07088e+07
          264  1.07096e+07
          265  1.07105e+07
          266  1.07114e+07
          267  1.07122e+07
          268  1.07129e+07
          269  1.07138e+07
          270  1.07148e+07
          271  1.07156e+07
          272  1.07163e+07
          273  1.07171e+07
          274  1.07179e+07
          275  1.07188e+07
          276  1.07196e+07
          277  1.07204e+07
          278  1.07211e+07
          279  1.07219e+07
          280  1.07227e+07
          281  1.07236e+07
          282  1.07244e+07
          283  1.07252e+07
          284  1.07259e+07
          285  1.07267e+07
          286  1.07275e+07
          287  1.07283e+07
          288  1.07291e+07
          289  1.07299e+07
          290  1.07306e+07
          291  1.07313e+07
          292  1.07322e+07
          293   1.0733e+07
          294  1.07338e+07
          295  1.07345e+07
          296  1.07352e+07
          297  1.07359e+07
          298  1.07367e+07
          299  1.07375e+07
          300  1.07383e+07
          301   1.0739e+07
          302  1.07398e+07
          303  1.07405e+07
          304  1.07413e+07
          305   1.0742e+07
          306  1.07428e+07
          307  1.07435e+07
          308  1.07442e+07
          309  1.07449e+07
          310  1.07456e+07
          311  1.07463e+07
          312  1.07471e+07
          313  1.07478e+07
          314  1.07485e+07
          315  1.07493e+07
          316  1.07499e+07
          317  1.07506e+07
          318  1.07513e+07
          319  1.07519e+07
          320  1.07526e+07
          321  1.07533e+07
          322   1.0754e+07
          323  1.07547e+07
          324  1.07553e+07
          325   1.0756e+07
          326  1.07566e+07
          327  1.07573e+07
          328   1.0758e+07
          329  1.07586e+07
          330  1.07593e+07
          331    1.076e+07
          332  1.07606e+07
          333  1.07613e+07
          334   1.0762e+07
          335  1.07626e+07
          336  1.07632e+07
          337  1.07639e+07
          338  1.07646e+07
          339  1.07652e+07
          340  1.07658e+07
          341  1.07664e+07
          342   1.0767e+07
          343  1.07677e+07
          344  1.07684e+07
          345  1.07689e+07
          346  1.07695e+07
          347  1.07701e+07
          348  1.07708e+07
          349  1.07715e+07
          350   1.0772e+07
          351  1.07726e+07
          352  1.07732e+07
          353  1.07739e+07
          354  1.07745e+07
          355  1.07751e+07
          356  1.07757e+07
          357  1.07763e+07
          358  1.07769e+07
          359  1.07775e+07
          360  1.07782e+07
          361  1.07788e+07
          362  1.07793e+07
          363  1.07799e+07
          364  1.07805e+07
          365  1.07811e+07
          366  1.07817e+07
          367  1.07823e+07
          368   1.0783e+07
          369  1.07835e+07
          370   1.0784e+07
          371  1.07846e+07
          372  1.07853e+07
          373  1.07859e+07
          374  1.07864e+07
          375   1.0787e+07
          376  1.07875e+07
          377  1.07881e+07
          378  1.07887e+07
          379  1.07891e+07
          380  1.07897e+07
          381  1.07904e+07
          382  1.07909e+07
          383  1.07914e+07
          384  1.07919e+07
          385  1.07925e+07
          386  1.07931e+07
          387  1.07936e+07
          388  1.07941e+07
          389  1.07947e+07
          390  1.07953e+07
          391  1.07958e+07
          392  1.07963e+07
          393  1.07968e+07
          394  1.07974e+07
          395   1.0798e+07
          396  1.07986e+07
          397  1.07992e+07
          398  1.07996e+07
          399  1.08002e+07
          400  1.08008e+07
          401  1.08014e+07
          402  1.08019e+07
          403  1.08023e+07
          404  1.08029e+07
          405  1.08035e+07
          406   1.0804e+07
          407  1.08045e+07
          408  1.08051e+07
          409  1.08056e+07
          410  1.08062e+07
          411  1.08065e+07
          412  1.08071e+07
          413  1.08078e+07
          414  1.08084e+07
          415  1.08088e+07
          416  1.08093e+07
          417  1.08098e+07
          418  1.08103e+07
          419  1.08108e+07
          420  1.08114e+07
          421  1.08119e+07
          422  1.08125e+07
          423   1.0813e+07
          424  1.08134e+07
          425  1.08139e+07
          426  1.08145e+07
          427   1.0815e+07
          428  1.08155e+07
          429   1.0816e+07
          430  1.08165e+07
          431   1.0817e+07
          432  1.08175e+07
          433   1.0818e+07
          434  1.08185e+07
          435   1.0819e+07
          436  1.08196e+07
          437  1.08201e+07
          438  1.08206e+07
          439  1.08211e+07
          440  1.08215e+07
          441   1.0822e+07
          442  1.08226e+07
          443  1.08231e+07
          444  1.08235e+07
          445  1.08239e+07
          446  1.08244e+07
          447   1.0825e+07
          448  1.08256e+07
          449   1.0826e+07
          450  1.08263e+07
          451  1.08269e+07
          452  1.08276e+07
          453   1.0828e+07
          454  1.08284e+07
          455  1.08289e+07
          456  1.08294e+07
          457    1.083e+07
          458  1.08304e+07
          459  1.08309e+07
          460  1.08313e+07
          461  1.08319e+07
          462  1.08324e+07
          463  1.08329e+07
          464  1.08333e+07
          465  1.08338e+07
          466  1.08343e+07
          467  1.08347e+07
          468  1.08352e+07
          469  1.08358e+07
          470  1.08362e+07
          471  1.08366e+07
          472  1.08371e+07
          473  1.08376e+07
          474  1.08382e+07
          475  1.08386e+07
          476  1.08391e+07
          477  1.08396e+07
          478    1.084e+07
          479  1.08405e+07
          480  1.08409e+07
          481  1.08415e+07
          482  1.08419e+07
          483  1.08423e+07
          484  1.08428e+07
          485  1.08433e+07
          486  1.08437e+07
          487  1.08442e+07
          488  1.08446e+07
          489   1.0845e+07
          490  1.08455e+07
          491  1.08461e+07
          492  1.08466e+07
          493   1.0847e+07
          494  1.08473e+07
          495  1.08478e+07
          496  1.08484e+07
          497  1.08488e+07
          498  1.08492e+07
          499  1.08497e+07
          500  1.08502e+07
          501  1.08506e+07
          502  1.08511e+07
          503  1.08515e+07
          504  1.08519e+07
          505  1.08524e+07
          506  1.08528e+07
          507  1.08533e+07
          508  1.08537e+07
          509  1.08541e+07
          510  1.08545e+07
          511   1.0855e+07
          512  1.08555e+07
          513  1.08559e+07
          514  1.08564e+07
          515  1.08567e+07
          516  1.08571e+07
          517  1.08576e+07
          518  1.08581e+07
          519  1.08585e+07
          520  1.08589e+07
          521  1.08593e+07
          522  1.08598e+07
          523  1.08603e+07
          524  1.08608e+07
          525  1.08611e+07
          526  1.08615e+07
          527   1.0862e+07
          528  1.08625e+07
          529   1.0863e+07
          530  1.08634e+07
          531  1.08638e+07
          532  1.08643e+07
          533  1.08647e+07
          534  1.08651e+07
          535  1.08656e+07
          536   1.0866e+07
          537  1.08665e+07
          538  1.08669e+07
          539  1.08673e+07
          540  1.08678e+07
          541  1.08683e+07
          542  1.08687e+07
          543  1.08691e+07
          544  1.08695e+07
          545    1.087e+07
          546  1.08704e+07
          547  1.08708e+07
          548  1.08712e+07
          549  1.08717e+07
          550  1.08721e+07
          551  1.08725e+07
          552   1.0873e+07
          553  1.08734e+07
          554  1.08738e+07
          555  1.08742e+07
          556  1.08747e+07
          557  1.08752e+07
          558  1.08756e+07
          559   1.0876e+07
          560  1.08764e+07
          561  1.08769e+07
          562  1.08774e+07
          563  1.08779e+07
          564  1.08782e+07
          565  1.08785e+07
          566   1.0879e+07
          567  1.08796e+07
          568    1.088e+07
          569  1.08804e+07
          570  1.08807e+07
          571  1.08811e+07
          572  1.08817e+07
          573  1.08821e+07
          574  1.08825e+07
          575  1.08829e+07
          576  1.08833e+07
          577  1.08838e+07
          578  1.08843e+07
          579  1.08846e+07
          580   1.0885e+07
          581  1.08855e+07
          582  1.08859e+07
          583  1.08863e+07
          584  1.08867e+07
          585  1.08872e+07
          586  1.08876e+07
          587   1.0888e+07
          588  1.08884e+07
          589  1.08889e+07
          590  1.08892e+07
          591  1.08897e+07
          592  1.08901e+07
          593  1.08905e+07
          594  1.08909e+07
          595  1.08912e+07
          596  1.08918e+07
          597  1.08923e+07
          598  1.08926e+07
          599  1.08929e+07
          600  1.08934e+07
          601  1.08938e+07
          602  1.08943e+07
          603  1.08947e+07
          604  1.08951e+07
          605  1.08955e+07
          606  1.08959e+07
          607  1.08963e+07
          608  1.08967e+07
          609  1.08971e+07
          610  1.08974e+07
          611  1.08978e+07
          612  1.08984e+07
          613  1.08988e+07
          614  1.08992e+07
          615  1.08995e+07
          616  1.08999e+07
          617  1.09004e+07
          618  1.09009e+07
          619  1.09013e+07
          620  1.09016e+07
          621   1.0902e+07
          622  1.09024e+07
          623  1.09028e+07
          624  1.09032e+07
          625  1.09036e+07
          626   1.0904e+07
          627  1.09044e+07
          628  1.09047e+07
          629  1.09052e+07
          630  1.09056e+07
          631  1.09061e+07
          632  1.09064e+07
          633  1.09067e+07
          634  1.09072e+07
          635  1.09077e+07
          636   1.0908e+07
          637  1.09085e+07
          638  1.09087e+07
          639  1.09091e+07
          640  1.09095e+07
          641    1.091e+07
          642  1.09103e+07
          643  1.09108e+07
          644  1.09111e+07
          645  1.09115e+07
          646  1.09119e+07
          647  1.09124e+07
          648  1.09127e+07
          649  1.09131e+07
          650  1.09135e+07
          651  1.09138e+07
          652  1.09142e+07
          653  1.09146e+07
          654  1.09151e+07
          655  1.09155e+07
          656  1.09158e+07
          657  1.09161e+07
          658  1.09166e+07
          659   1.0917e+07
          660  1.09173e+07
          661  1.09177e+07
          662   1.0918e+07
          663  1.09185e+07
          664  1.09188e+07
          665  1.09193e+07
          666  1.09197e+07
          667    1.092e+07
          668  1.09204e+07
          669  1.09207e+07
          670  1.09211e+07
          671  1.09215e+07
          672  1.09219e+07
          673  1.09223e+07
          674  1.09227e+07
          675   1.0923e+07
          676  1.09234e+07
          677  1.09238e+07
          678  1.09243e+07
          679  1.09246e+07
          680  1.09249e+07
          681  1.09252e+07
          682  1.09257e+07
          683  1.09261e+07
          684  1.09264e+07
          685  1.09268e+07
          686  1.09271e+07
          687  1.09275e+07
          688  1.09279e+07
          689  1.09283e+07
          690  1.09287e+07
          691   1.0929e+07
          692  1.09294e+07
          693  1.09298e+07
          694  1.09301e+07
          695  1.09304e+07
          696  1.09308e+07
          697  1.09312e+07
          698  1.09316e+07
          699  1.09318e+07
          700  1.09322e+07
          701  1.09326e+07
          702   1.0933e+07
          703  1.09333e+07
          704  1.09336e+07
          705   1.0934e+07
          706  1.09344e+07
          707  1.09347e+07
          708  1.09351e+07
          709  1.09354e+07
          710  1.09358e+07
          711  1.09362e+07
          712  1.09366e+07
          713  1.09369e+07
          714  1.09372e+07
          715  1.09376e+07
          716   1.0938e+07
          717  1.09384e+07
          718  1.09386e+07
          719  1.09389e+07
          720  1.09393e+07
          721  1.09396e+07
          722    1.094e+07
          723  1.09403e+07
          724  1.09406e+07
          725   1.0941e+07
          726  1.09413e+07
          727  1.09416e+07
          728  1.09419e+07
          729  1.09423e+07
          730  1.09425e+07
          731  1.09429e+07
          732  1.09432e+07
          733  1.09436e+07
          734  1.09439e+07
          735  1.09442e+07
          736  1.09445e+07
          737  1.09447e+07
          738  1.09451e+07
          739  1.09454e+07
          740  1.09458e+07
          741   1.0946e+07
          742  1.09463e+07
          743  1.09466e+07
          744   1.0947e+07
          745  1.09473e+07
          746  1.09476e+07
          747  1.09479e+07
          748  1.09482e+07
          749  1.09485e+07
          750  1.09489e+07
          751  1.09493e+07
          752  1.09495e+07
          753  1.09498e+07
          754    1.095e+07
          755  1.09504e+07
          756  1.09508e+07
          757  1.09511e+07
          758  1.09512e+07
          759  1.09516e+07
          760  1.09519e+07
          761  1.09522e+07
          762  1.09525e+07
          763  1.09528e+07
          764  1.09531e+07
          765  1.09534e+07
          766  1.09538e+07
          767  1.09541e+07
          768  1.09544e+07
          769  1.09547e+07
          770   1.0955e+07
          771  1.09553e+07
          772  1.09556e+07
          773  1.09559e+07
          774  1.09562e+07
          775  1.09565e+07
          776  1.09569e+07
          777  1.09571e+07
          778  1.09574e+07
          779  1.09577e+07
          780  1.09581e+07
          781  1.09584e+07
          782  1.09587e+07
          783   1.0959e+07
          784  1.09593e+07
          785  1.09596e+07
          786  1.09599e+07
          787  1.09602e+07
          788  1.09605e+07
          789  1.09608e+07
          790  1.09612e+07
          791  1.09615e+07
          792  1.09617e+07
          793   1.0962e+07
          794  1.09623e+07
          795  1.09627e+07
          796   1.0963e+07
          797  1.09632e+07
          798  1.09635e+07
          799  1.09638e+07
          800  1.09641e+07
          801  1.09644e+07
          802  1.09648e+07
          803  1.09651e+07
          804  1.09654e+07
          805  1.09657e+07
          806   1.0966e+07
          807  1.09662e+07
          808  1.09665e+07
          809  1.09669e+07
          810  1.09671e+07
          811  1.09674e+07
          812  1.09678e+07
          813  1.09681e+07
          814  1.09683e+07
          815  1.09686e+07
          816  1.09689e+07
          817  1.09692e+07
          818  1.09695e+07
          819  1.09698e+07
          820  1.09701e+07
          821  1.09704e+07
          822  1.09707e+07
          823   1.0971e+07
          824  1.09713e+07
          825  1.09715e+07
          826  1.09718e+07
          827  1.09721e+07
          828  1.09724e+07
          829  1.09727e+07
          830   1.0973e+07
          831  1.09733e+07
          832  1.09736e+07
          833  1.09739e+07
          834  1.09741e+07
          835  1.09744e+07
          836  1.09748e+07
          837   1.0975e+07
          838  1.09753e+07
          839  1.09756e+07
          840  1.09759e+07
          841  1.09762e+07
          842  1.09765e+07
          843  1.09767e+07
          844   1.0977e+07
          845  1.09773e+07
          846  1.09776e+07
          847  1.09779e+07
          848  1.09782e+07
          849  1.09785e+07
          850  1.09788e+07
          851   1.0979e+07
          852  1.09793e+07
          853  1.09796e+07
          854    1.098e+07
          855  1.09802e+07
          856  1.09805e+07
          857  1.09807e+07
          858  1.09811e+07
          859  1.09814e+07
          860  1.09816e+07
          861  1.09818e+07
          862  1.09821e+07
          863  1.09824e+07
          864  1.09827e+07
          865   1.0983e+07
          866  1.09832e+07
          867  1.09835e+07
          868  1.09839e+07
          869  1.09841e+07
          870  1.09844e+07
          871  1.09846e+07
          872  1.09849e+07
          873  1.09852e+07
          874  1.09855e+07
          875  1.09858e+07
          876  1.09861e+07
          877  1.09863e+07
          878  1.09867e+07
          879  1.09869e+07
          880  1.09872e+07
          881  1.09875e+07
          882  1.09877e+07
          883   1.0988e+07
          884  1.09882e+07
          885  1.09885e+07
          886  1.09888e+07
          887   1.0989e+07
          888  1.09893e+07
          889  1.09896e+07
          890  1.09899e+07
          891  1.09902e+07
          892  1.09904e+07
          893  1.09907e+07
          894   1.0991e+07
          895  1.09913e+07
          896  1.09915e+07
          897  1.09918e+07
          898  1.09921e+07
          899  1.09923e+07
          900  1.09926e+07
          901  1.09929e+07
          902  1.09931e+07
          903  1.09934e+07
          904  1.09937e+07
          905   1.0994e+07
          906  1.09942e+07
          907  1.09944e+07
          908  1.09947e+07
          909   1.0995e+07
          910  1.09953e+07
          911  1.09955e+07
          912  1.09958e+07
          913  1.09961e+07
          914  1.09963e+07
          915  1.09965e+07
          916  1.09968e+07
          917  1.09971e+07
          918  1.09974e+07
          919  1.09976e+07
          920  1.09978e+07
          921  1.09981e+07
          922  1.09984e+07
          923  1.09987e+07
          924   1.0999e+07
          925  1.09992e+07
          926  1.09995e+07
          927  1.09997e+07
          928      1.1e+07
          929  1.10003e+07
          930  1.10005e+07
          931  1.10007e+07
          932   1.1001e+07
          933  1.10012e+07
          934  1.10015e+07
          935  1.10018e+07
          936   1.1002e+07
          937  1.10023e+07
          938  1.10025e+07
          939  1.10028e+07
          940  1.10031e+07
          941  1.10033e+07
          942  1.10036e+07
          943  1.10038e+07
          944  1.10041e+07
          945  1.10043e+07
          946  1.10046e+07
          947  1.10048e+07
          948  1.10051e+07
          949  1.10053e+07
          950  1.10056e+07
          951  1.10059e+07
          952  1.10061e+07
          953  1.10063e+07
          954  1.10066e+07
          955  1.10069e+07
          956  1.10071e+07
          957  1.10074e+07
          958  1.10076e+07
          959  1.10078e+07
          960  1.10081e+07
          961  1.10084e+07
          962  1.10086e+07
          963  1.10088e+07
          964  1.10091e+07
          965  1.10094e+07
          966  1.10096e+07
          967  1.10098e+07
          968  1.10101e+07
          969  1.10103e+07
          970  1.10106e+07
          971  1.10108e+07
          972   1.1011e+07
          973  1.10113e+07
          974  1.10116e+07
          975  1.10119e+07
          976  1.10121e+07
          977  1.10123e+07
          978  1.10126e+07
          979  1.10128e+07
          980  1.10131e+07
          981  1.10133e+07
          982  1.10135e+07
          983  1.10138e+07
          984   1.1014e+07
          985  1.10142e+07
          986  1.10145e+07
          987  1.10147e+07
          988   1.1015e+07
          989  1.10152e+07
          990  1.10154e+07
          991  1.10156e+07
          992  1.10159e+07
          993  1.10161e+07
          994  1.10164e+07
          995  1.10166e+07
          996  1.10169e+07
          997  1.10171e+07
          998  1.10174e+07
          999  1.10176e+07
         1000  1.10178e+07
         1001   1.1018e+07
         1002  1.10183e+07
         1003  1.10185e+07
         1004  1.10188e+07
         1005  1.10189e+07
         1006  1.10192e+07
         1007  1.10195e+07
         1008  1.10197e+07
         1009  1.10199e+07
         1010  1.10201e+07
         1011  1.10204e+07
         1012  1.10206e+07
         1013  1.10209e+07
         1014  1.10211e+07
         1015  1.10213e+07
         1016  1.10216e+07
         1017  1.10218e+07
         1018   1.1022e+07
         1019  1.10223e+07
         1020  1.10225e+07
         1021  1.10227e+07
         1022  1.10229e+07
         1023  1.10231e+07
         1024  1.10234e+07
         1025  1.10236e+07
         1026  1.10238e+07
         1027   1.1024e+07
         1028  1.10242e+07
         1029  1.10245e+07
         1030  1.10247e+07
         1031   1.1025e+07
         1032  1.10252e+07
         1033  1.10254e+07
         1034  1.10256e+07
         1035  1.10258e+07
         1036   1.1026e+07
         1037  1.10263e+07
         1038  1.10265e+07
         1039  1.10266e+07
         1040  1.10269e+07
         1041  1.10271e+07
         1042  1.10273e+07
         1043  1.10275e+07
         1044  1.10278e+07
         1045   1.1028e+07
         1046  1.10283e+07
         1047  1.10285e+07
         1048  1.10287e+07
         1049  1.10289e+07
         1050  1.10291e+07
         1051  1.10294e+07
         1052  1.10296e+07
         1053  1.10298e+07
         1054    1.103e+07
         1055  1.10302e+07
         1056  1.10304e+07
         1057  1.10306e+07
         1058  1.10308e+07
         1059  1.10311e+07
         1060  1.10313e+07
         1061  1.10314e+07
         1062  1.10317e+07
         1063  1.10319e+07
         1064  1.10321e+07
         1065  1.10323e+07
         1066  1.10325e+07
         1067  1.10327e+07
         1068   1.1033e+07
         1069  1.10331e+07
         1070  1.10333e+07
         1071  1.10336e+07
         1072  1.10338e+07
         1073   1.1034e+07
         1074  1.10342e+07
         1075  1.10344e+07
         1076  1.10346e+07
         1077  1.10348e+07
         1078   1.1035e+07
         1079  1.10352e+07
         1080  1.10354e+07
         1081  1.10356e+07
         1082  1.10359e+07
         1083  1.10361e+07
         1084  1.10362e+07
         1085  1.10364e+07
         1086  1.10367e+07
         1087  1.10369e+07
         1088   1.1037e+07
         1089  1.10372e+07
         1090  1.10374e+07
         1091  1.10377e+07
         1092  1.10379e+07
         1093  1.10381e+07
         1094  1.10383e+07
         1095  1.10385e+07
         1096  1.10386e+07
         1097  1.10389e+07
         1098  1.10391e+07
         1099  1.10393e+07
         1100  1.10395e+07
         1101  1.10396e+07
         1102  1.10398e+07
         1103    1.104e+07
         1104  1.10403e+07
         1105  1.10404e+07
         1106  1.10406e+07
         1107  1.10408e+07
         1108   1.1041e+07
         1109  1.10412e+07
         1110  1.10414e+07