/*--------------------------------*- C++ -*----------------------------------*\
| =========                 |                                                 |
| \\      /  F ield         | OpenFOAM: The Open Source CFD Toolbox           |
|  \\    /   O peration     | Version:  2.4.0                                 |
|   \\  /    A nd           | Web:      www.OpenFOAM.org                      |
|    \\/     M anipulation  |                                                 |
\*---------------------------------------------------------------------------*/
FoamFile
{
    version     2.0;
    format      ascii;
    class       volScalarField;
    location    "15000/fluid";
    object      alphat;
}
// * * * * * * * * * * * * * * * * * * * * * * * * * * * * * * * * * * * * * //

dimensions      [1 -1 -1 0 0 0 0];

internalField   nonuniform List<scalar> 
105000
(
8.75741e-05
0.000143082
0.000409714
0.000836353
0.00133203
0.00179929
0.00216753
0.00239821
0.00251395
0.00249698
0.00243422
0.00233276
0.00221068
0.00208411
0.0019644
0.00185792
0.00176677
0.00169
0.00162855
0.00157877
0.00154282
0.00151788
0.00150083
0.00148857
0.00148139
0.00147483
0.00146824
0.00146077
0.0014518
0.00144167
0.00143086
0.0014197
0.00140891
0.00139858
0.00138852
0.00137922
0.00137083
0.00136279
0.00135505
0.00134765
0.00134059
0.00133381
0.0013273
0.00132107
0.00131511
0.00130941
0.00130396
0.00129874
0.00129375
0.00128896
0.00128437
0.00127996
0.00127573
0.00127166
0.00126774
0.00126395
0.00126029
0.00125672
0.00125323
0.00124981
0.00124644
0.00124312
0.00123985
0.00123662
0.00123345
0.00123033
0.00122726
0.00122424
0.00122128
0.00121838
0.00121554
0.00121275
0.00121002
0.00120735
0.00120474
0.00120219
0.0011997
0.00119726
0.00119488
0.00119256
0.00119029
0.00118808
0.00118592
0.00118381
0.00118175
0.00117975
0.00117779
0.00117589
0.00117403
0.00117221
0.00117045
0.00116872
0.00116704
0.00116541
0.00116382
0.00116227
0.00116076
0.00115929
0.00115786
0.00115646
0.00115511
0.00115379
0.0011525
0.00115126
0.00115004
0.00114886
0.00114772
0.0011466
0.00114552
0.00114447
0.00114345
0.00114246
0.00114151
0.00114058
0.00113968
0.00113881
0.00113797
0.00113715
0.00113636
0.00113561
0.00113487
0.00113417
0.00113349
0.00113284
0.00113221
0.00113161
0.00113103
0.00113048
0.00112995
0.00112944
0.00112896
0.0011285
0.00112806
0.00112765
0.00112726
0.00112689
0.00112654
0.00112621
0.0011259
0.00112561
0.00112533
0.00112508
0.00112485
0.00112464
0.00112444
0.00112427
0.00112411
0.00112397
0.00112385
0.00112375
0.00112367
0.00112361
0.00112356
0.00112354
0.00112353
0.00112354
0.00112357
0.00112362
0.00112369
0.00112378
0.00112388
0.00112401
0.00112415
0.00112431
0.00112449
0.00112468
0.0011249
0.00112513
0.00112538
0.00112564
0.00112592
0.00112622
0.00112654
0.00112688
0.00112723
0.00112759
0.00112798
0.00112838
0.00112881
0.00112925
0.0011297
0.00113018
0.00113068
0.0011312
0.00113173
0.00113229
0.00113287
0.00113347
0.0011341
0.00113475
0.00113542
0.00113612
0.00113685
0.0011376
0.00113838
0.00113919
0.00114003
0.00114091
0.00114181
0.00114275
0.00114373
0.00114474
0.00114578
0.00114687
0.00114799
0.00114915
0.00115035
0.0011516
0.00115288
0.00115421
0.00115559
0.00115701
0.00115847
0.00115998
0.00116154
0.00116315
0.0011648
0.0011665
0.00116826
0.00117006
0.00117191
0.00117382
0.00117577
0.00117777
0.00117982
0.00118192
0.00118407
0.00118627
0.00118852
0.00119082
0.00119317
0.00119556
0.00119801
0.0012005
0.00120304
0.00120563
0.00120827
0.00121095
0.00121368
0.00121645
0.00121927
0.00122213
0.00122503
0.00122797
0.00123096
0.00123398
0.00123705
0.00124016
0.0012433
0.00124648
0.00124969
0.00125294
0.00125622
0.00125953
0.00126288
0.00126625
0.00126966
0.0012731
0.00127657
0.00128008
0.0012836
0.00128716
0.00129076
0.00129437
0.00129802
0.00130169
0.00130538
0.0013091
0.00131284
0.00131661
0.00132039
0.0013242
0.00132803
0.00133188
0.00133574
0.00133963
0.00134353
0.00134746
0.00135139
0.00135535
0.00135932
0.0013633
0.0013673
0.00137131
0.00137533
0.00137936
0.00138341
0.00138747
0.00139153
0.00139561
0.0013997
0.0014038
0.00140791
0.00141202
0.00141614
0.00142027
0.00142441
0.00142856
0.00143271
0.00143687
0.00144104
0.00144522
0.0014494
0.00145359
0.00145779
0.00146199
0.0014662
0.00147042
0.00147465
0.00147889
0.00148314
0.00148741
0.00149168
0.00149596
0.00150027
0.00150486
0.00150958
0.001514
0.00151817
0.00152209
0.00152577
0.00152923
0.00153248
0.00153553
0.0015384
0.00154111
0.00154365
0.00154604
0.00154829
0.00155041
0.00155239
0.00155427
0.00155603
0.00155768
0.00155924
0.0015607
0.00156208
0.00156338
0.0015646
0.00156575
0.00156682
0.00156784
0.0015688
0.0015697
0.00157054
0.00157134
0.00157208
0.00157281
0.00157338
0.00157444
8.75751e-05
0.000143065
0.000409692
0.000836384
0.00133218
0.0017996
0.00216807
0.00239893
0.00251493
0.00249805
0.00243538
0.002334
0.00221196
0.00208543
0.0019657
0.00185926
0.00176806
0.00169133
0.00162985
0.00158008
0.00154416
0.00151924
0.00150212
0.00148989
0.00148273
0.00147616
0.0014696
0.0014622
0.0014532
0.00144309
0.0014323
0.00142109
0.00141022
0.00139964
0.00138916
0.00137942
0.00137058
0.00136206
0.00135386
0.00134604
0.00133859
0.0013315
0.00132474
0.00131831
0.00131221
0.00130641
0.0013009
0.00129566
0.00129067
0.00128591
0.00128135
0.001277
0.00127283
0.00126882
0.00126497
0.00126125
0.00125765
0.00125414
0.00125071
0.00124734
0.00124402
0.00124075
0.00123752
0.00123434
0.0012312
0.00122812
0.00122508
0.00122209
0.00121916
0.00121628
0.00121345
0.00121068
0.00120797
0.00120532
0.00120272
0.00120017
0.00119769
0.00119526
0.00119289
0.00119057
0.0011883
0.00118609
0.00118393
0.00118183
0.00117977
0.00117777
0.00117581
0.0011739
0.00117204
0.00117022
0.00116846
0.00116673
0.00116505
0.00116341
0.00116182
0.00116026
0.00115875
0.00115728
0.00115584
0.00115445
0.00115309
0.00115176
0.00115048
0.00114923
0.00114801
0.00114682
0.00114567
0.00114455
0.00114347
0.00114241
0.00114139
0.0011404
0.00113943
0.0011385
0.0011376
0.00113672
0.00113588
0.00113506
0.00113427
0.0011335
0.00113277
0.00113206
0.00113137
0.00113071
0.00113008
0.00112947
0.00112889
0.00112834
0.0011278
0.00112729
0.0011268
0.00112634
0.0011259
0.00112548
0.00112508
0.0011247
0.00112435
0.00112401
0.0011237
0.0011234
0.00112312
0.00112287
0.00112263
0.00112241
0.00112221
0.00112203
0.00112187
0.00112173
0.0011216
0.0011215
0.00112141
0.00112134
0.0011213
0.00112127
0.00112126
0.00112127
0.00112129
0.00112134
0.0011214
0.00112149
0.00112159
0.00112171
0.00112185
0.00112201
0.00112219
0.00112238
0.00112259
0.00112282
0.00112306
0.00112333
0.00112361
0.0011239
0.00112422
0.00112455
0.0011249
0.00112527
0.00112565
0.00112605
0.00112647
0.00112691
0.00112737
0.00112784
0.00112834
0.00112885
0.00112939
0.00112994
0.00113052
0.00113112
0.00113175
0.0011324
0.00113307
0.00113377
0.00113449
0.00113524
0.00113603
0.00113684
0.00113768
0.00113855
0.00113945
0.00114039
0.00114136
0.00114237
0.00114342
0.0011445
0.00114562
0.00114678
0.00114798
0.00114923
0.00115051
0.00115184
0.00115321
0.00115463
0.00115609
0.0011576
0.00115916
0.00116076
0.00116242
0.00116412
0.00116587
0.00116767
0.00116952
0.00117142
0.00117337
0.00117537
0.00117742
0.00117952
0.00118167
0.00118386
0.00118611
0.0011884
0.00119075
0.00119314
0.00119558
0.00119807
0.00120061
0.0012032
0.00120583
0.00120851
0.00121123
0.001214
0.0012168
0.00121966
0.00122255
0.00122549
0.00122847
0.00123149
0.00123455
0.00123765
0.00124078
0.00124395
0.00124716
0.0012504
0.00125367
0.00125698
0.00126032
0.00126368
0.00126708
0.00127052
0.00127398
0.00127747
0.00128099
0.00128454
0.00128812
0.00129173
0.00129537
0.00129903
0.00130271
0.00130642
0.00131015
0.0013139
0.00131768
0.00132148
0.00132529
0.00132913
0.00133299
0.00133686
0.00134076
0.00134467
0.0013486
0.00135254
0.0013565
0.00136047
0.00136445
0.00136845
0.00137246
0.00137648
0.00138052
0.00138457
0.00138862
0.00139269
0.00139677
0.00140085
0.00140495
0.00140905
0.00141316
0.00141728
0.00142141
0.00142554
0.00142968
0.00143383
0.00143799
0.00144215
0.00144632
0.0014505
0.00145469
0.00145888
0.00146308
0.00146729
0.00147151
0.00147573
0.00147997
0.00148422
0.00148848
0.00149276
0.00149705
0.00150162
0.00150633
0.00151075
0.0015149
0.0015188
0.00152248
0.00152592
0.00152916
0.00153221
0.00153507
0.00153777
0.00154031
0.00154269
0.00154493
0.00154704
0.00154902
0.00155089
0.00155264
0.00155429
0.00155585
0.00155731
0.00155868
0.00155997
0.00156119
0.00156234
0.00156342
0.00156443
0.00156538
0.00156628
0.00156712
0.00156791
0.00156865
0.00156938
0.00156995
0.00157101
8.75759e-05
0.000143023
0.000409649
0.000836452
0.00133249
0.00180025
0.00216914
0.00240036
0.00251685
0.00250012
0.00243762
0.00233637
0.00221438
0.00208789
0.00196812
0.00186171
0.0017704
0.00169372
0.00163219
0.00158237
0.00154646
0.00152162
0.00150441
0.00149232
0.00148521
0.0014786
0.00147208
0.00146473
0.00145567
0.00144557
0.00143466
0.00142333
0.00141212
0.00140095
0.00138963
0.0013789
0.00136912
0.00135971
0.0013507
0.00134215
0.00133406
0.00132643
0.00131924
0.00131249
0.00130614
0.00130018
0.00129457
0.00128929
0.0012843
0.00127957
0.00127509
0.00127083
0.00126676
0.00126287
0.00125913
0.00125553
0.00125204
0.00124864
0.00124532
0.00124205
0.00123883
0.00123566
0.00123252
0.00122942
0.00122636
0.00122335
0.00122037
0.00121744
0.00121456
0.00121172
0.00120894
0.0012062
0.00120352
0.00120089
0.00119831
0.00119579
0.00119333
0.00119091
0.00118855
0.00118624
0.00118399
0.00118178
0.00117963
0.00117753
0.00117548
0.00117347
0.00117152
0.00116961
0.00116775
0.00116593
0.00116416
0.00116244
0.00116075
0.00115911
0.00115751
0.00115596
0.00115444
0.00115296
0.00115152
0.00115012
0.00114875
0.00114742
0.00114613
0.00114487
0.00114365
0.00114246
0.0011413
0.00114017
0.00113908
0.00113802
0.00113699
0.00113599
0.00113502
0.00113408
0.00113317
0.00113228
0.00113143
0.0011306
0.0011298
0.00112903
0.00112829
0.00112757
0.00112688
0.00112621
0.00112557
0.00112496
0.00112437
0.0011238
0.00112326
0.00112274
0.00112224
0.00112177
0.00112132
0.00112089
0.00112048
0.00112009
0.00111973
0.00111938
0.00111906
0.00111875
0.00111846
0.0011182
0.00111795
0.00111772
0.00111752
0.00111733
0.00111716
0.00111701
0.00111687
0.00111676
0.00111667
0.00111659
0.00111654
0.0011165
0.00111649
0.00111649
0.00111651
0.00111655
0.00111661
0.00111669
0.00111679
0.0011169
0.00111704
0.00111719
0.00111736
0.00111755
0.00111775
0.00111798
0.00111822
0.00111848
0.00111875
0.00111905
0.00111935
0.00111968
0.00112003
0.00112039
0.00112077
0.00112117
0.00112158
0.00112202
0.00112247
0.00112294
0.00112344
0.00112395
0.00112448
0.00112503
0.00112561
0.00112621
0.00112683
0.00112747
0.00112815
0.00112884
0.00112956
0.00113031
0.00113109
0.0011319
0.00113274
0.00113361
0.00113451
0.00113544
0.00113642
0.00113742
0.00113847
0.00113955
0.00114066
0.00114182
0.00114302
0.00114426
0.00114554
0.00114687
0.00114824
0.00114965
0.00115111
0.00115262
0.00115417
0.00115577
0.00115742
0.00115912
0.00116087
0.00116266
0.00116451
0.00116641
0.00116835
0.00117034
0.00117238
0.00117448
0.00117662
0.00117881
0.00118105
0.00118334
0.00118567
0.00118806
0.00119049
0.00119297
0.0011955
0.00119808
0.0012007
0.00120337
0.00120608
0.00120884
0.00121164
0.00121448
0.00121736
0.00122029
0.00122326
0.00122626
0.00122931
0.00123239
0.00123551
0.00123866
0.00124185
0.00124508
0.00124834
0.00125162
0.00125494
0.0012583
0.00126168
0.0012651
0.00126854
0.00127202
0.00127552
0.00127905
0.00128261
0.0012862
0.00128982
0.00129346
0.00129713
0.00130082
0.00130453
0.00130826
0.00131202
0.0013158
0.00131959
0.00132341
0.00132724
0.00133109
0.00133497
0.00133886
0.00134276
0.00134668
0.00135062
0.00135457
0.00135853
0.00136251
0.00136649
0.00137049
0.0013745
0.00137853
0.00138256
0.00138661
0.00139066
0.00139472
0.00139879
0.00140287
0.00140696
0.00141105
0.00141516
0.00141927
0.00142339
0.00142751
0.00143164
0.00143578
0.00143993
0.00144408
0.00144824
0.00145241
0.00145658
0.00146077
0.00146497
0.00146917
0.00147338
0.0014776
0.00148184
0.00148609
0.00149035
0.0014949
0.00149958
0.00150398
0.0015081
0.00151198
0.00151563
0.00151906
0.00152229
0.00152531
0.00152816
0.00153084
0.00153336
0.00153573
0.00153796
0.00154005
0.00154203
0.00154388
0.00154562
0.00154727
0.00154881
0.00155026
0.00155163
0.00155292
0.00155412
0.00155526
0.00155633
0.00155734
0.00155829
0.00155918
0.00156002
0.00156081
0.00156154
0.00156227
0.00156283
0.00156389
8.75767e-05
0.000142954
0.000409578
0.000836563
0.00133298
0.00180127
0.00217083
0.00240257
0.0025198
0.00250328
0.00244102
0.00233995
0.00221806
0.0020916
0.0019718
0.00186534
0.00177397
0.00169724
0.00163566
0.0015858
0.00154979
0.00152551
0.00150852
0.00149668
0.00148915
0.00148251
0.00147596
0.00146838
0.00145924
0.00144893
0.00143772
0.00142591
0.00141387
0.00140158
0.00138879
0.00137656
0.00136547
0.00135486
0.00134482
0.00133536
0.00132651
0.00131826
0.00131058
0.00130344
0.00129681
0.00129064
0.00128491
0.00127956
0.00127456
0.00126988
0.00126547
0.0012613
0.00125736
0.0012536
0.00125002
0.00124658
0.00124324
0.00124
0.00123683
0.00123371
0.00123063
0.00122759
0.00122457
0.00122159
0.00121864
0.00121572
0.00121283
0.00120999
0.00120718
0.00120441
0.00120168
0.001199
0.00119636
0.00119378
0.00119124
0.00118875
0.00118631
0.00118392
0.00118158
0.00117929
0.00117706
0.00117487
0.00117272
0.00117063
0.00116859
0.00116659
0.00116464
0.00116273
0.00116087
0.00115906
0.00115729
0.00115556
0.00115388
0.00115223
0.00115063
0.00114907
0.00114755
0.00114607
0.00114462
0.00114321
0.00114184
0.00114051
0.00113921
0.00113794
0.00113671
0.00113551
0.00113434
0.00113321
0.00113211
0.00113104
0.00113
0.00112899
0.00112801
0.00112706
0.00112614
0.00112525
0.00112438
0.00112355
0.00112274
0.00112196
0.0011212
0.00112047
0.00111977
0.00111909
0.00111844
0.00111782
0.00111721
0.00111663
0.00111608
0.00111555
0.00111504
0.00111455
0.00111409
0.00111364
0.00111322
0.00111282
0.00111244
0.00111208
0.00111174
0.00111142
0.00111113
0.00111085
0.00111059
0.00111035
0.00111012
0.00110992
0.00110974
0.00110958
0.00110944
0.00110931
0.00110921
0.00110913
0.00110906
0.00110902
0.00110899
0.00110899
0.001109
0.00110903
0.00110909
0.00110916
0.00110925
0.00110935
0.00110948
0.00110962
0.00110979
0.00110997
0.00111017
0.00111038
0.00111061
0.00111087
0.00111113
0.00111142
0.00111172
0.00111204
0.00111238
0.00111274
0.00111311
0.0011135
0.00111391
0.00111434
0.00111479
0.00111525
0.00111574
0.00111625
0.00111678
0.00111733
0.0011179
0.00111849
0.00111911
0.00111975
0.00112041
0.0011211
0.00112182
0.00112257
0.00112334
0.00112414
0.00112498
0.00112584
0.00112674
0.00112767
0.00112864
0.00112964
0.00113068
0.00113175
0.00113287
0.00113402
0.00113521
0.00113645
0.00113772
0.00113904
0.00114041
0.00114182
0.00114327
0.00114477
0.00114631
0.00114791
0.00114955
0.00115124
0.00115298
0.00115477
0.00115661
0.00115849
0.00116043
0.00116241
0.00116444
0.00116652
0.00116865
0.00117084
0.00117306
0.00117534
0.00117766
0.00118004
0.00118245
0.00118492
0.00118744
0.00119
0.00119261
0.00119526
0.00119796
0.00120069
0.00120348
0.0012063
0.00120917
0.00121207
0.00121502
0.001218
0.00122103
0.00122409
0.00122718
0.00123031
0.00123348
0.00123668
0.00123991
0.00124317
0.00124647
0.0012498
0.00125316
0.00125655
0.00125997
0.00126341
0.00126689
0.0012704
0.00127393
0.00127749
0.00128108
0.00128469
0.00128833
0.00129199
0.00129567
0.00129938
0.0013031
0.00130685
0.00131061
0.00131439
0.0013182
0.00132202
0.00132586
0.00132972
0.00133359
0.00133747
0.00134138
0.00134529
0.00134922
0.00135316
0.00135711
0.00136108
0.00136505
0.00136904
0.00137304
0.00137705
0.00138107
0.00138509
0.00138913
0.00139317
0.00139722
0.00140128
0.00140534
0.00140942
0.0014135
0.00141759
0.00142168
0.00142579
0.00142989
0.001434
0.00143813
0.00144226
0.0014464
0.00145054
0.0014547
0.00145886
0.00146304
0.00146722
0.00147142
0.00147563
0.00147986
0.00148436
0.00148899
0.00149335
0.00149744
0.00150128
0.00150489
0.00150829
0.00151148
0.00151449
0.00151731
0.00151996
0.00152245
0.0015248
0.001527
0.00152908
0.00153104
0.00153287
0.0015346
0.00153623
0.00153776
0.0015392
0.00154055
0.00154183
0.00154302
0.00154415
0.00154521
0.00154621
0.00154715
0.00154804
0.00154887
0.00154965
0.00155038
0.00155109
0.00155165
0.0015527
8.75762e-05
0.000142839
0.000409474
0.000836726
0.0013337
0.00180273
0.00217323
0.00240572
0.00252396
0.00250773
0.00244579
0.00234494
0.00222315
0.0020967
0.00197689
0.00187035
0.00177896
0.00170224
0.00164073
0.00159083
0.00155532
0.00153074
0.00151381
0.00150248
0.0014947
0.00148814
0.00148131
0.00147341
0.00146386
0.00145294
0.00144085
0.00142778
0.00141411
0.00139984
0.00138492
0.00137083
0.00135817
0.00134623
0.00133503
0.0013248
0.00131515
0.00130626
0.00129808
0.00129056
0.00128364
0.00127726
0.00127139
0.00126598
0.00126097
0.00125632
0.00125198
0.00124793
0.00124411
0.00124051
0.00123709
0.00123382
0.00123067
0.00122761
0.00122461
0.00122167
0.00121876
0.00121588
0.00121302
0.00121019
0.00120737
0.00120457
0.0012018
0.00119906
0.00119635
0.00119366
0.00119102
0.00118841
0.00118584
0.00118331
0.00118082
0.00117838
0.00117598
0.00117363
0.00117133
0.00116907
0.00116685
0.00116469
0.00116256
0.00116049
0.00115846
0.00115648
0.00115454
0.00115264
0.00115079
0.00114898
0.00114721
0.00114549
0.00114381
0.00114217
0.00114056
0.001139
0.00113748
0.00113599
0.00113455
0.00113314
0.00113176
0.00113042
0.00112911
0.00112784
0.0011266
0.0011254
0.00112423
0.00112309
0.00112197
0.0011209
0.00111985
0.00111883
0.00111784
0.00111688
0.00111595
0.00111505
0.00111417
0.00111333
0.00111251
0.00111171
0.00111095
0.00111021
0.00110949
0.0011088
0.00110814
0.0011075
0.00110688
0.00110629
0.00110572
0.00110517
0.00110465
0.00110414
0.00110366
0.0011032
0.00110276
0.00110235
0.00110195
0.00110157
0.00110122
0.00110088
0.00110057
0.00110027
0.0011
0.00109974
0.00109951
0.00109929
0.0010991
0.00109892
0.00109877
0.00109863
0.00109852
0.00109842
0.00109835
0.00109829
0.00109825
0.00109824
0.00109824
0.00109826
0.0010983
0.00109836
0.00109844
0.00109854
0.00109866
0.00109879
0.00109894
0.00109911
0.0010993
0.00109951
0.00109973
0.00109997
0.00110023
0.00110051
0.0011008
0.00110111
0.00110144
0.00110179
0.00110215
0.00110253
0.00110294
0.00110336
0.0011038
0.00110426
0.00110474
0.00110523
0.00110575
0.00110629
0.00110686
0.00110744
0.00110805
0.00110869
0.00110935
0.00111003
0.00111074
0.00111148
0.00111224
0.00111304
0.00111387
0.00111472
0.00111561
0.00111654
0.0011175
0.00111849
0.00111952
0.00112059
0.00112169
0.00112284
0.00112402
0.00112525
0.00112651
0.00112782
0.00112918
0.00113058
0.00113202
0.00113351
0.00113504
0.00113662
0.00113825
0.00113993
0.00114166
0.00114343
0.00114526
0.00114713
0.00114905
0.00115102
0.00115304
0.0011551
0.00115722
0.00115938
0.00116159
0.00116384
0.00116615
0.0011685
0.0011709
0.00117335
0.00117584
0.00117838
0.00118097
0.00118359
0.00118626
0.00118898
0.00119173
0.00119453
0.00119737
0.00120025
0.00120316
0.00120612
0.0012091
0.00121213
0.00121519
0.00121829
0.00122142
0.00122459
0.00122779
0.00123101
0.00123428
0.00123757
0.00124089
0.00124424
0.00124763
0.00125104
0.00125448
0.00125794
0.00126144
0.00126496
0.00126851
0.00127208
0.00127568
0.00127929
0.00128293
0.00128659
0.00129027
0.00129397
0.00129769
0.00130143
0.00130519
0.00130896
0.00131276
0.00131656
0.00132039
0.00132423
0.00132808
0.00133195
0.00133583
0.00133972
0.00134362
0.00134754
0.00135146
0.0013554
0.00135935
0.0013633
0.00136727
0.00137124
0.00137523
0.00137921
0.00138321
0.00138722
0.00139123
0.00139525
0.00139928
0.00140331
0.00140735
0.0014114
0.00141545
0.00141951
0.00142358
0.00142766
0.00143174
0.00143583
0.00143992
0.00144404
0.00144815
0.00145228
0.00145642
0.00146057
0.00146474
0.00146918
0.00147375
0.00147804
0.00148208
0.00148587
0.00148943
0.00149278
0.00149593
0.00149889
0.00150167
0.00150429
0.00150675
0.00150906
0.00151124
0.00151328
0.00151521
0.00151702
0.00151873
0.00152033
0.00152184
0.00152326
0.00152459
0.00152585
0.00152704
0.00152815
0.00152919
0.00153018
0.0015311
0.00153197
0.00153279
0.00153356
0.00153428
0.00153499
0.00153555
0.00153658
8.75725e-05
0.000142654
0.000409302
0.000836968
0.00133475
0.0018049
0.00217673
0.00241035
0.0025301
0.00251434
0.00245298
0.00235258
0.00223107
0.00210488
0.00198518
0.00187887
0.00178776
0.00171155
0.0016507
0.00160205
0.00156722
0.00154344
0.00152678
0.00151517
0.0015066
0.00149915
0.00149126
0.00148209
0.00147102
0.00145826
0.00144384
0.00142824
0.00141164
0.00139454
0.00137696
0.00136082
0.0013466
0.00133338
0.00132123
0.00131003
0.00129989
0.00129044
0.00128181
0.00127396
0.00126678
0.00126023
0.00125424
0.00124877
0.00124374
0.00123911
0.00123484
0.00123087
0.00122718
0.00122372
0.00122047
0.00121737
0.0012144
0.00121153
0.00120873
0.00120598
0.00120326
0.00120056
0.00119787
0.00119519
0.00119253
0.00118988
0.00118724
0.00118462
0.00118201
0.00117943
0.00117688
0.00117436
0.00117186
0.0011694
0.00116698
0.00116459
0.00116225
0.00115994
0.00115767
0.00115545
0.00115327
0.00115113
0.00114903
0.00114698
0.00114497
0.001143
0.00114107
0.00113919
0.00113734
0.00113554
0.00113378
0.00113206
0.00113038
0.00112874
0.00112714
0.00112558
0.00112405
0.00112256
0.00112111
0.00111969
0.00111831
0.00111697
0.00111565
0.00111437
0.00111312
0.00111191
0.00111073
0.00110957
0.00110845
0.00110736
0.0011063
0.00110527
0.00110427
0.0011033
0.00110235
0.00110143
0.00110054
0.00109968
0.00109884
0.00109803
0.00109725
0.00109649
0.00109576
0.00109505
0.00109437
0.0010937
0.00109307
0.00109245
0.00109186
0.00109129
0.00109074
0.00109022
0.00108971
0.00108923
0.00108876
0.00108832
0.0010879
0.0010875
0.00108712
0.00108677
0.00108643
0.00108611
0.00108582
0.00108554
0.00108529
0.00108505
0.00108484
0.00108465
0.00108447
0.00108432
0.00108419
0.00108408
0.00108398
0.00108391
0.00108386
0.00108382
0.00108381
0.00108382
0.00108384
0.00108388
0.00108395
0.00108403
0.00108413
0.00108424
0.00108438
0.00108453
0.00108471
0.0010849
0.0010851
0.00108533
0.00108557
0.00108583
0.00108611
0.00108641
0.00108672
0.00108705
0.0010874
0.00108777
0.00108816
0.00108857
0.00108899
0.00108944
0.0010899
0.00109039
0.00109089
0.00109142
0.00109197
0.00109254
0.00109314
0.00109376
0.00109441
0.00109508
0.00109577
0.0010965
0.00109725
0.00109803
0.00109884
0.00109969
0.00110056
0.00110147
0.00110242
0.0011034
0.00110441
0.00110546
0.00110655
0.00110768
0.00110885
0.00111006
0.00111131
0.0011126
0.00111394
0.00111532
0.00111674
0.00111821
0.00111973
0.00112129
0.0011229
0.00112455
0.00112626
0.00112801
0.00112982
0.00113166
0.00113356
0.00113551
0.0011375
0.00113954
0.00114162
0.00114376
0.00114594
0.00114817
0.00115044
0.00115277
0.00115513
0.00115755
0.00116
0.00116251
0.00116506
0.00116765
0.00117028
0.00117296
0.00117567
0.00117843
0.00118123
0.00118406
0.00118693
0.00118983
0.00119278
0.00119576
0.00119877
0.00120182
0.0012049
0.00120802
0.00121117
0.00121435
0.00121756
0.0012208
0.00122407
0.00122737
0.0012307
0.00123406
0.00123744
0.00124085
0.00124429
0.00124775
0.00125124
0.00125476
0.00125829
0.00126185
0.00126543
0.00126902
0.00127264
0.00127628
0.00127993
0.00128361
0.0012873
0.00129101
0.00129473
0.00129848
0.00130223
0.001306
0.00130979
0.00131358
0.00131739
0.00132121
0.00132504
0.00132889
0.00133274
0.00133661
0.00134048
0.00134436
0.00134826
0.00135215
0.00135606
0.00135998
0.0013639
0.00136783
0.00137176
0.0013757
0.00137965
0.00138361
0.00138758
0.00139154
0.00139552
0.0013995
0.00140349
0.00140748
0.00141148
0.00141549
0.00141951
0.00142353
0.00142757
0.00143162
0.00143568
0.00143974
0.00144383
0.00144818
0.00145266
0.00145686
0.00146082
0.00146453
0.00146803
0.0014713
0.00147439
0.00147728
0.00148001
0.00148258
0.00148499
0.00148726
0.00148939
0.0014914
0.00149328
0.00149506
0.00149673
0.0014983
0.00149977
0.00150116
0.00150247
0.00150371
0.00150486
0.00150595
0.00150698
0.00150794
0.00150885
0.0015097
0.00151051
0.00151126
0.00151197
0.00151266
0.00151321
0.00151422
8.75666e-05
0.000142387
0.000409063
0.000837277
0.00133615
0.00180773
0.00218142
0.00241642
0.00253785
0.00252252
0.00246159
0.00236142
0.00224009
0.00211426
0.00199562
0.00189078
0.00180163
0.00172817
0.00166951
0.00162444
0.00159037
0.00156632
0.00154891
0.00153545
0.00152404
0.00151314
0.00150151
0.00148816
0.0014728
0.00145559
0.00143676
0.00141702
0.00139672
0.00137655
0.00135637
0.00133838
0.00132293
0.00130876
0.00129589
0.00128412
0.00127357
0.00126377
0.00125489
0.00124686
0.00123956
0.00123293
0.00122691
0.00122143
0.00121644
0.00121187
0.00120767
0.00120382
0.00120026
0.00119696
0.00119389
0.00119099
0.00118822
0.00118557
0.001183
0.00118048
0.00117798
0.0011755
0.00117302
0.00117054
0.00116807
0.00116559
0.00116313
0.00116066
0.00115821
0.00115577
0.00115335
0.00115095
0.00114857
0.00114622
0.00114389
0.0011416
0.00113933
0.0011371
0.00113491
0.00113276
0.00113064
0.00112856
0.00112651
0.00112451
0.00112255
0.00112062
0.00111874
0.00111689
0.00111508
0.00111331
0.00111158
0.00110989
0.00110823
0.00110661
0.00110503
0.00110349
0.00110198
0.0011005
0.00109907
0.00109766
0.00109629
0.00109495
0.00109365
0.00109237
0.00109113
0.00108992
0.00108874
0.00108759
0.00108647
0.00108538
0.00108432
0.00108329
0.00108228
0.0010813
0.00108036
0.00107943
0.00107853
0.00107766
0.00107682
0.001076
0.0010752
0.00107443
0.00107368
0.00107296
0.00107226
0.00107158
0.00107093
0.00107029
0.00106968
0.00106909
0.00106852
0.00106798
0.00106745
0.00106695
0.00106647
0.00106601
0.00106557
0.00106515
0.00106475
0.00106438
0.00106402
0.00106369
0.00106338
0.00106309
0.00106282
0.00106257
0.00106234
0.00106213
0.00106194
0.00106177
0.00106162
0.00106149
0.00106139
0.0010613
0.00106123
0.00106118
0.00106115
0.00106114
0.00106114
0.00106117
0.00106122
0.00106128
0.00106136
0.00106147
0.00106158
0.00106172
0.00106188
0.00106205
0.00106224
0.00106245
0.00106268
0.00106292
0.00106318
0.00106346
0.00106376
0.00106408
0.00106441
0.00106476
0.00106514
0.00106553
0.00106594
0.00106637
0.00106682
0.00106729
0.00106778
0.00106829
0.00106882
0.00106938
0.00106996
0.00107056
0.00107119
0.00107184
0.00107252
0.00107323
0.00107396
0.00107472
0.00107552
0.00107634
0.0010772
0.00107809
0.00107901
0.00107997
0.00108096
0.00108199
0.00108306
0.00108416
0.00108531
0.00108649
0.00108772
0.00108898
0.00109029
0.00109165
0.00109304
0.00109448
0.00109597
0.0010975
0.00109908
0.0011007
0.00110237
0.00110409
0.00110586
0.00110767
0.00110953
0.00111143
0.00111339
0.00111538
0.00111743
0.00111952
0.00112166
0.00112384
0.00112607
0.00112834
0.00113066
0.00113302
0.00113542
0.00113787
0.00114036
0.00114289
0.00114547
0.00114808
0.00115073
0.00115342
0.00115615
0.00115891
0.00116171
0.00116455
0.00116742
0.00117033
0.00117327
0.00117625
0.00117926
0.0011823
0.00118537
0.00118848
0.00119161
0.00119478
0.00119797
0.00120119
0.00120443
0.0012077
0.00121101
0.00121433
0.00121768
0.00122106
0.00122445
0.00122788
0.00123132
0.00123478
0.00123827
0.00124177
0.00124529
0.00124883
0.00125239
0.00125596
0.00125956
0.00126317
0.00126679
0.00127043
0.00127408
0.00127775
0.00128143
0.00128512
0.00128882
0.00129253
0.00129626
0.00129999
0.00130373
0.00130749
0.00131126
0.00131503
0.00131881
0.00132259
0.00132639
0.00133019
0.001334
0.00133781
0.00134163
0.00134546
0.00134929
0.00135313
0.00135697
0.00136083
0.00136468
0.00136854
0.00137241
0.00137629
0.00138017
0.00138405
0.00138795
0.00139186
0.00139577
0.00139969
0.00140363
0.00140757
0.00141153
0.00141575
0.00142009
0.00142416
0.001428
0.00143159
0.00143498
0.00143816
0.00144115
0.00144396
0.0014466
0.00144908
0.00145141
0.00145361
0.00145568
0.00145763
0.00145945
0.00146117
0.00146279
0.00146432
0.00146575
0.0014671
0.00146836
0.00146956
0.00147068
0.00147174
0.00147273
0.00147367
0.00147455
0.00147538
0.00147615
0.00147689
0.00147757
0.00147824
0.00147877
0.00147975
8.75482e-05
0.000142013
0.000408849
0.00083792
0.00133835
0.00181195
0.002187
0.00242302
0.00254449
0.00252903
0.00246779
0.00236773
0.00224786
0.00212582
0.00201196
0.0019122
0.00182831
0.00175941
0.00170345
0.00165844
0.00162196
0.00159224
0.00156727
0.00154565
0.00152577
0.00150662
0.00148692
0.00146652
0.00144452
0.00142123
0.00139723
0.00137338
0.00134995
0.00132747
0.0013057
0.00128679
0.00127087
0.00125644
0.00124339
0.00123168
0.00122103
0.00121133
0.00120259
0.0011947
0.00118756
0.00118111
0.00117528
0.00116999
0.00116519
0.00116084
0.00115688
0.00115327
0.00114996
0.00114692
0.00114411
0.00114148
0.001139
0.00113662
0.00113432
0.00113208
0.00112986
0.00112765
0.00112545
0.00112324
0.00112103
0.00111882
0.00111659
0.00111437
0.00111215
0.00110993
0.00110771
0.00110551
0.00110332
0.00110115
0.001099
0.00109687
0.00109476
0.00109269
0.00109064
0.00108862
0.00108663
0.00108467
0.00108275
0.00108086
0.001079
0.00107718
0.00107539
0.00107363
0.00107191
0.00107023
0.00106857
0.00106696
0.00106537
0.00106382
0.00106231
0.00106082
0.00105937
0.00105795
0.00105657
0.00105521
0.00105389
0.0010526
0.00105133
0.0010501
0.0010489
0.00104772
0.00104657
0.00104545
0.00104436
0.0010433
0.00104226
0.00104125
0.00104027
0.00103931
0.00103837
0.00103746
0.00103658
0.00103572
0.00103488
0.00103406
0.00103327
0.0010325
0.00103176
0.00103103
0.00103033
0.00102965
0.00102899
0.00102836
0.00102774
0.00102715
0.00102658
0.00102603
0.0010255
0.00102499
0.00102451
0.00102404
0.0010236
0.00102318
0.00102278
0.00102239
0.00102203
0.0010217
0.00102138
0.00102108
0.0010208
0.00102054
0.00102031
0.00102009
0.00101989
0.00101972
0.00101956
0.00101942
0.0010193
0.0010192
0.00101912
0.00101906
0.00101902
0.001019
0.00101899
0.00101901
0.00101904
0.00101909
0.00101916
0.00101925
0.00101935
0.00101948
0.00101962
0.00101978
0.00101996
0.00102015
0.00102036
0.00102059
0.00102084
0.0010211
0.00102138
0.00102168
0.001022
0.00102233
0.00102269
0.00102306
0.00102346
0.00102387
0.0010243
0.00102474
0.00102521
0.00102571
0.00102622
0.00102675
0.00102731
0.00102789
0.00102849
0.00102912
0.00102977
0.00103045
0.00103116
0.00103189
0.00103266
0.00103345
0.00103427
0.00103513
0.00103602
0.00103695
0.0010379
0.0010389
0.00103993
0.00104099
0.0010421
0.00104324
0.00104442
0.00104565
0.00104691
0.00104821
0.00104956
0.00105095
0.00105238
0.00105386
0.00105538
0.00105695
0.00105856
0.00106022