/*--------------------------------*- C++ -*----------------------------------*\
| =========                 |                                                 |
| \\      /  F ield         | OpenFOAM: The Open Source CFD Toolbox           |
|  \\    /   O peration     | Version:  2.4.0                                 |
|   \\  /    A nd           | Web:      www.OpenFOAM.org                      |
|    \\/     M anipulation  |                                                 |
\*---------------------------------------------------------------------------*/
FoamFile
{
    version     2.0;
    format      ascii;
    class       volScalarField;
    location    "15000/fluid";
    object      k;
}
// * * * * * * * * * * * * * * * * * * * * * * * * * * * * * * * * * * * * * //

dimensions      [0 2 -2 0 0 0 0];

internalField   nonuniform List<scalar> 
105000
(
0.22654
0.370917
1.06385
2.17208
3.45754
4.66773
5.61993
6.21336
6.50891
6.45916
6.29354
6.02917
5.71337
5.38747
5.08091
4.80953
4.57989
4.38795
4.23847
4.11721
4.03736
3.98538
3.95553
3.93985
3.94053
3.94439
3.95153
3.95777
3.96361
3.96833
3.97355
3.98026
3.99011
4.00266
4.01716
4.03107
4.04398
4.05661
4.0688
4.08089
4.09286
4.10472
4.11652
4.12849
4.14065
4.15309
4.16593
4.17918
4.19291
4.2072
4.22206
4.23757
4.25378
4.27071
4.28839
4.3068
4.32591
4.34567
4.36602
4.3869
4.40828
4.43012
4.45242
4.47515
4.49833
4.52195
4.54602
4.57054
4.59551
4.62095
4.64685
4.67322
4.70007
4.72742
4.75526
4.7836
4.81246
4.84184
4.87173
4.90217
4.93314
4.96465
4.99672
5.02934
5.06254
5.09631
5.13065
5.16559
5.20113
5.23727
5.27402
5.31139
5.34939
5.38804
5.42732
5.46725
5.50785
5.54911
5.59104
5.63367
5.67698
5.721
5.76572
5.81117
5.85734
5.90425
5.95189
6.00029
6.04944
6.09937
6.15006
6.20154
6.25381
6.30688
6.36075
6.41544
6.47094
6.52726
6.58442
6.64243
6.70127
6.76095
6.82149
6.88289
6.94516
7.0083
7.0723
7.13718
7.20295
7.26961
7.33717
7.40564
7.47503
7.54533
7.61656
7.68873
7.76185
7.83594
7.911
7.98704
8.0641
8.14217
8.22129
8.30145
8.38269
8.46502
8.54845
8.63301
8.7187
8.80556
8.89359
8.98281
9.07324
9.16489
9.25777
9.3519
9.44729
9.54396
9.64189
9.74112
9.84164
9.94349
10.0467
10.1512
10.257
10.3642
10.4727
10.5827
10.694
10.8067
10.9208
11.0364
11.1534
11.2719
11.3919
11.5133
11.6363
11.7608
11.8869
12.0145
12.1437
12.2746
12.4071
12.5412
12.6771
12.8146
12.9538
13.0949
13.2376
13.3822
13.5287
13.677
13.8271
13.9792
14.1333
14.2893
14.4473
14.6074
14.7695
14.9338
15.1002
15.2688
15.4396
15.6126
15.7879
15.9655
16.1455
16.3278
16.5126
16.6998
16.8894
17.0816
17.2764
17.4737
17.6737
17.8763
18.0816
18.2897
18.5005
18.7142
18.9306
19.1499
19.3721
19.5972
19.8252
20.0562
20.2902
20.5271
20.7672
21.0103
21.2565
21.5058
21.7584
22.014
22.273
22.5352
22.8006
23.0693
23.3413
23.6166
23.8952
24.1772
24.4625
24.7513
25.0434
25.339
25.6381
25.9405
26.2466
26.556
26.8691
27.1856
27.5056
27.8292
28.1563
28.487
28.8213
29.1592
29.5009
29.8462
30.1951
30.5478
30.9043
31.2645
31.6287
31.9966
32.3681
32.7436
33.1228
33.5058
33.8927
34.2835
34.678
35.0766
35.479
35.8854
36.2958
36.7102
37.1283
37.5506
37.9769
38.407
38.8412
39.2794
39.7216
40.1679
40.6183
41.0728
41.5314
41.9942
42.4611
42.9319
43.407
43.8863
44.3697
44.8573
45.3491
45.8452
46.3455
46.8501
47.359
47.872
48.3893
48.9111
49.4371
49.9674
50.5021
51.0412
51.5846
52.1323
52.6845
53.2413
53.8023
54.3677
54.9378
55.548
56.1775
56.7708
57.3298
57.856
58.3507
58.8159
59.2531
59.6637
60.0495
60.4116
60.7517
61.0707
61.3699
61.6504
61.9136
62.1602
62.3914
62.6081
62.8112
63.0014
63.1797
63.3466
63.5029
63.6494
63.7866
63.915
64.0353
64.1479
64.2532
64.3522
64.4437
64.5331
64.6048
64.7234
0.226543
0.370898
1.06396
2.17256
3.45864
4.66959
5.62262
6.21666
6.51293
6.46335
6.29785
6.03358
5.71766
5.39174
5.08491
4.81353
4.58354
4.39169
4.24191
4.12063
4.0408
3.98885
3.95869
3.94316
3.94378
3.94772
3.95486
3.96123
3.96696
3.97164
3.97668
3.9828
3.99186
4.00279
4.01511
4.02679
4.03744
4.04772
4.05771
4.06779
4.07801
4.0884
4.09904
4.11011
4.12162
4.13362
4.14621
4.15937
4.17315
4.18758
4.20267
4.21847
4.23501
4.2523
4.27037
4.28916
4.30864
4.32877
4.34947
4.37069
4.3924
4.41457
4.43717
4.4602
4.48365
4.50753
4.53184
4.55658
4.58176
4.60739
4.63347
4.66001
4.68702
4.71451
4.74248
4.77095
4.79992
4.82941
4.85941
4.88993
4.92098
4.95258
4.98473
5.01743
5.0507
5.08453
5.11894
5.15394
5.18953
5.22572
5.26253
5.29995
5.338
5.37669
5.41601
5.45599
5.49662
5.53792
5.57989
5.62255
5.6659
5.70994
5.75469
5.80016
5.84635
5.89329
5.94095
5.98937
6.03854
6.08847
6.13918
6.19067
6.24294
6.29601
6.34988
6.40456
6.46006
6.51637
6.57351
6.63149
6.6903
6.74996
6.81046
6.87182
6.93404
6.99712
7.06107
7.1259
7.1916
7.25818
7.32566
7.39405
7.46336
7.53358
7.60473
7.67681
7.74984
7.82384
7.89881
7.97477
8.05174
8.12973
8.20875
8.28884
8.36999
8.45224
8.53559
8.62007
8.70569
8.79247
8.88041
8.96955
9.05989
9.15144
9.24422
9.33824
9.43352
9.53006
9.62787
9.72697
9.82736
9.92906
10.0321
10.1364
10.2421
10.3491
10.4574
10.5672
10.6783
10.7908
10.9047
11.0201
11.1368
11.2551
11.3748
11.496
11.6187
11.7429
11.8687
11.9961
12.125
12.2556
12.3878
12.5216
12.6571
12.7943
12.9332
13.0738
13.2163
13.3605
13.5065
13.6544
13.8042
13.9558
14.1095
14.265
14.4226
14.5822
14.7439
14.9076
15.0735
15.2416
15.4119
15.5844
15.7591
15.9361
16.1155
16.2972
16.4813
16.6679
16.8569
17.0485
17.2425
17.4392
17.6384
17.8403
18.0449
18.2522
18.4623
18.6751
18.8908
19.1093
19.3306
19.5548
19.7819
20.012
20.245
20.4811
20.7202
20.9623
21.2075
21.4558
21.7073
21.9619
22.2197
22.4808
22.7451
23.0127
23.2834
23.5575
23.8349
24.1157
24.3997
24.6871
24.978
25.2721
25.5698
25.8709
26.1754
26.4835
26.795
27.11
27.4284
27.7505
28.076
28.405
28.7377
29.0739
29.4138
29.7574
30.1045
30.4555
30.8102
31.1685
31.5307
31.8967
32.2663
32.6398
33.0171
33.398
33.7829
34.1715
34.5639
34.9603
35.3606
35.7647
36.1729
36.585
37.0009
37.4209
37.8448
38.2725
38.7042
39.14
39.5798
40.0235
40.4714
40.9234
41.3794
41.8395
42.3038
42.772
43.2443
43.7209
44.2016
44.6863
45.1754
45.6686
46.1659
46.6676
47.1735
47.6837
48.1979
48.7166
49.2396
49.7667
50.2982
50.8343
51.3745
51.919
52.4679
53.0213
53.5791
54.1412
54.7078
55.3143
55.9402
56.53
57.0855
57.6085
58.1003
58.5627
58.9972
59.4055
59.7887
60.1488
60.4867
60.8037
61.1011
61.38
61.6415
61.8866
62.1164
62.3318
62.5336
62.7226
62.8997
63.0657
63.2211
63.3667
63.503
63.6306
63.7501
63.862
63.9666
64.065
64.156
64.2448
64.3162
64.434
0.226548
0.370849
1.06418
2.17359
3.46094
4.67343
5.62813
6.22339
6.52105
6.47174
6.30646
6.04224
5.7261
5.39998
5.09262
4.82111
4.59042
4.39866
4.24831
4.12682
4.04692
3.99509
3.96443
3.94948
3.94974
3.95386
3.96061
3.96692
3.97217
3.9763
3.98017
3.98461
3.99108
3.99845
4.00623
4.01303
4.01916
4.02525
4.03145
4.03814
4.04546
4.05347
4.06223
4.07188
4.08236
4.09368
4.1059
4.11896
4.13284
4.14756
4.16308
4.17941
4.19655
4.2145
4.23325
4.25274
4.27291
4.29371
4.31509
4.33697
4.35932
4.38209
4.40528
4.42886
4.45283
4.4772
4.50196
4.52713
4.55271
4.5787
4.60512
4.63198
4.65928
4.68705
4.71527
4.74398
4.77318
4.80286
4.83306
4.86377
4.895
4.92675
4.95905
4.99189
5.02529
5.05925
5.09378
5.1289
5.1646
5.2009
5.2378
5.27532
5.31345
5.35222
5.39163
5.43168
5.47238
5.51375
5.55579
5.5985
5.64191
5.686
5.73081
5.77631
5.82255
5.86951
5.91721
5.96565
6.01485
6.0648
6.11551
6.16701
6.21928
6.27234
6.32619
6.38085
6.4363
6.49258
6.54967
6.60759
6.66632
6.7259
6.78632
6.84758
6.90968
6.97264
7.03646
7.10114
7.1667
7.23313
7.30045
7.36867
7.43779
7.50783
7.57878
7.65068
7.72353
7.79734
7.87212
7.9479
8.02469
8.1025
8.18135
8.26125
8.34223
8.42431
8.50749
8.59179
8.67723
8.76382
8.85158
8.94051
9.03064
9.12197
9.21451
9.30827
9.40329
9.49956
9.5971
9.69589
9.79595
9.89731
9.99995
10.1039
10.2092
10.3158
10.4237
10.533
10.6437
10.7557
10.8692
10.984
11.1003
11.218
11.3372
11.4578
11.5799
11.7036
11.8287
11.9555
12.0838
12.2137
12.3452
12.4783
12.6131
12.7496
12.8877
13.0276
13.1692
13.3126
13.4579
13.6049
13.7537
13.9045
14.0572
14.2118
14.3683
14.5269
14.6876
14.8503
15.0151
15.182
15.3511
15.5224
15.696
15.8718
16.0498
16.2303
16.4131
16.5983
16.7859
16.976
17.1686
17.3638
17.5615
17.7619
17.9649
18.1705
18.379
18.5901
18.804
19.0207
19.2402
19.4626
19.6879
19.9161
20.1471
20.3812
20.6182
20.8583
21.1013
21.3475
21.5967
21.8491
22.1045
22.3633
22.6252
22.8904
23.1586
23.4302
23.705
23.983
24.2644
24.5491
24.8371
25.1285
25.4232
25.7214
26.0228
26.3278
26.6361
26.948
27.2632
27.5819
27.9041
28.2297
28.559
28.8918
29.228
29.568
29.9116
30.2587
30.6096
30.9642
31.3225
31.6846
32.0502
32.4196
32.7927
33.1695
33.55
33.9344
34.3225
34.7144
35.1103
35.5099
35.9134
36.3209
36.7321
37.1471
37.5662
37.9891
38.4158
38.8466
39.2813
39.7199
40.1626
40.6093
41.06
41.5147
41.9735
42.4363
42.903
43.374
43.849
44.328
44.8112
45.2986
45.79
46.2856
46.7856
47.2896
47.7977
48.3101
48.8268
49.3476
49.8726
50.4022
50.9359
51.4738
52.0159
52.5626
53.1137
53.6689
54.2284
54.8275
55.4457
56.0282
56.5768
57.0933
57.579
58.0357
58.4647
58.8679
59.2465
59.6018
59.9354
60.2485
60.5421
60.8175
61.0757
61.3177
61.5445
61.7572
61.9565
62.1431
62.318
62.4817
62.6352
62.7789
62.9134
63.0394
63.1574
63.2679
63.3712
63.4683
63.5581
63.6457
63.7161
63.8323
0.226555
0.370768
1.06455
2.17523
3.46459
4.67948
5.63677
6.23385
6.53362
6.48466
6.31976
6.05555
5.73924
5.41263
5.10475
4.83264
4.60131
4.40912
4.25808
4.13657
4.05543
4.00513
3.97511
3.96053
3.95875
3.96254
3.96805
3.97295
3.97623
3.97831
3.97915
3.97956
3.98053
3.98158
3.98216
3.98204
3.98225
3.98307
3.98478
3.98765
3.99183
3.99732
4.00413
4.01232
4.02178
4.03246
4.04437
4.0574
4.0715
4.08663
4.10271
4.11973
4.13766
4.15646
4.17612
4.19653
4.21764
4.23938
4.26167
4.28445
4.30766
4.33127
4.35525
4.37958
4.40426
4.4293
4.45469
4.48044
4.50656
4.53306
4.55996
4.58726
4.61497
4.64311
4.6717
4.70074
4.73024
4.76021
4.79068
4.82164
4.8531
4.88508
4.91759
4.95062
4.98421
5.01834
5.05304
5.08831
5.12415
5.16059
5.19763
5.23527
5.27352
5.31239
5.3519
5.39205
5.43284
5.47429
5.51641
5.55919
5.60266
5.64682
5.69166
5.73722
5.78349
5.83048
5.8782
5.92665
5.97585
6.02579
6.0765
6.12795
6.18019
6.2332
6.28699
6.34157
6.39694
6.45311
6.51007
6.56785
6.62645
6.68586
6.74608
6.80714
6.86904
6.93177
6.99534
7.05977
7.12505
7.1912
7.25823
7.32617
7.395
7.46473
7.53539
7.60698
7.67952
7.75303
7.82751
7.90299
7.97947
8.05698
8.13554
8.21515
8.29583
8.37759
8.46046
8.54444
8.62955
8.71579
8.80319
8.89174
8.98147
9.07239
9.1645
9.25782
9.35236
9.44812
9.54511
9.64334
9.74281
9.84354
9.94555
10.0488
10.1534
10.2593
10.3665
10.4751
10.5849
10.6962
10.8088
10.9228
11.0381
11.155
11.2732
11.3929
11.514
11.6366
11.7608
11.8865
12.0137
12.1424
12.2728
12.4047
12.5383
12.6735
12.8104
12.9489
13.0892
13.2312
13.375
13.5205
13.6679
13.8171
13.9682
14.1211
14.276
14.4329
14.5917
14.7526
14.9156
15.0807
15.2478
15.4172
15.5887
15.7624
15.9384
16.1166
16.2972
16.4801
16.6655
16.8532
17.0434
17.2361
17.4313
17.6291
17.8295
18.0324
18.2381
18.4465
18.6576
18.8714
19.0879
19.3073
19.5294
19.7545
19.9823
20.2131
20.4468
20.6834
20.923
21.1657
21.4113
21.66
21.9117
22.1667
22.4247
22.6858
22.9501
23.2175
23.4882
23.7619
24.039
24.3192
24.6027
24.8896
25.1796
25.473
25.7695
26.0696
26.373
26.6797
26.9899
27.3033
27.6202
27.9405
28.2642
28.5914
28.9221
29.2563
29.5941
29.9353
30.2802
30.6288
30.9809
31.3367
31.696
32.0589
32.4255
32.7958
33.1696
33.5472
33.9284
34.3133
34.7021
35.0946
35.4909
35.891
36.2949
36.7024
37.1138
37.529
37.948
38.3708
38.7976
39.2281
39.6626
40.1011
40.5435
40.9897
41.44
41.8942
42.3522
42.8143
43.2804
43.7504
44.2244
44.7026
45.1849
45.6711
46.1614
46.6559
47.1544
47.6569
48.1637
48.6747
49.1897
49.7088
50.2323
50.7599
51.2916
51.8276
52.3679
52.9124
53.461
54.0482
54.6543
55.2255
55.7634
56.2695
56.7456
57.1932
57.6138
58.009
58.38
58.7283
59.0552
59.3618
59.6495
59.9194
60.1724
60.4095
60.6318
60.8402
61.0354
61.2183
61.3896
61.55
61.7003
61.8411
61.9729
62.0964
62.2119
62.3201
62.4213
62.5164
62.6044
62.6902
62.7592
62.8729
0.226566
0.370631
1.06509
2.17765
3.46989
4.68825
5.64918
6.24891
6.5515
6.50307
6.3386
6.07432
5.75769
5.4303
5.12184
4.84869
4.61679
4.42375
4.27235
4.14923
4.06968
4.01748
3.98569
3.97104
3.96731
3.96911
3.97168
3.97319
3.97187
3.96859
3.96285
3.9558
3.94815
3.94006
3.93157
3.92384
3.91798
3.91373
3.91123
3.91121
3.91265
3.91605
3.92134
3.92843
3.93718
3.94748
3.95929
3.97247
3.98693
4.0026
4.01938
4.0372
4.05604
4.07582
4.0965
4.11797
4.14014
4.16295
4.1863
4.21011
4.23433
4.25891
4.28381
4.30902
4.33453
4.36035
4.38648
4.41292
4.43968
4.46678
4.49424
4.52205
4.55025
4.57884
4.60785
4.63728
4.66714
4.69746
4.72824
4.75949
4.79123
4.82347
4.85621
4.88947
4.92327
4.9576
4.99248
5.02792
5.06392
5.10051
5.13768
5.17544
5.21381
5.25279
5.29239
5.33263
5.3735
5.41501
5.45719
5.50002
5.54352
5.5877
5.63256
5.67812
5.72438
5.77136
5.81903
5.86744
5.91657
5.96644
6.01705
6.06839
6.1205
6.17335
6.22697
6.28136
6.33652
6.39244
6.44916
6.50666
6.56495
6.62403
6.68392
6.74462
6.80613
6.86846
6.93162
6.99562
7.06047
7.12618
7.19276
7.26023
7.32859
7.39786
7.46805
7.53916
7.61124
7.68427
7.75828
7.83329
7.9093
7.98633
8.06439
8.1435
8.22366
8.3049
8.38722
8.47063
8.55514
8.64076
8.72751
8.81539
8.9044
8.99457
9.08589
9.17838
9.27205
9.36691
9.46297
9.56023
9.65871
9.75841
9.85934
9.96151
10.0649
10.1697
10.2756
10.3829
10.4915
10.6014
10.7127
10.8253
10.9392
11.0546
11.1713
11.2894
11.409
11.53
11.6525
11.7764
11.9019
12.0289
12.1573
12.2874
12.419
12.5522
12.687
12.8235
12.9616
13.1013
13.2428
13.3861
13.531
13.6778
13.8264
13.9768
14.1291
14.2832
14.4393
14.5975
14.7576
14.9197
15.0838
15.2501
15.4185
15.589
15.7617
15.9366
16.1138
16.2933
16.475
16.6592
16.8457
17.0346
17.226
17.4198
17.6161
17.8151
18.0166
18.2208
18.4275
18.6369
18.849
19.0638
19.2813
19.5016
19.7246
19.9505
20.1792
20.4107
20.6451
20.8824
21.1227
21.3658
21.6121
21.8613
22.1136
22.3688
22.6271
22.8884
23.1528
23.4203
23.6909
23.9647
24.2415
24.5216
24.8047
25.091
25.3806
25.6733
25.9695
26.2687
26.5713
26.8772
27.1862
27.4987
27.8145
28.1336
28.4561
28.7819
29.1112
29.444
29.7801
30.1199
30.4631
30.8097
31.1599
31.5136
31.8707
32.2314
32.5956
32.9633
33.3347
33.7095
34.088
34.4702
34.8561
35.2456
35.6388
36.0356
36.4359
36.8401
37.248
37.6594
38.0747
38.4937
38.9164
39.3429
39.7734
40.2075
40.6454
41.0872
41.5328
41.9822
42.4355
42.8926
43.3536
43.8184
44.2874
44.7603
45.2369
45.7176
46.2022
46.6908
47.1833
47.6799
48.1805
48.685
49.1937
49.7065
50.2232
50.7438
51.2688
51.7978
52.3308
52.9012
53.4898
54.0446
54.5671
55.0587
55.5208
55.9554
56.3639
56.7475
57.1078
57.4459
57.7633
58.061
58.3401
58.6019
58.8474
59.0775
59.2932
59.4954
59.6848
59.8622
60.0285
60.1842
60.33
60.4666
60.5944
60.7141
60.8262
60.9312
61.0294
61.1217
61.207
61.2903
61.3571
61.4673
0.226581
0.370407
1.06584
2.18109
3.47736
4.70068
5.66662
6.27032
6.57715
6.52981
6.36614
6.10241
5.78513
5.45746
5.14746
4.87374
4.6406
4.44747
4.29571
4.17424
4.0927
4.03932
4.00514
3.98578
3.97587
3.97058
3.96545
3.95854
3.94799
3.9345
3.91787
3.89984
3.88109
3.86296
3.8458
3.83144
3.82083
3.8129
3.8078
3.80527
3.80567
3.80788
3.81235
3.819
3.82755
3.8379
3.84992
3.86349
3.87848
3.8948
3.91235
3.93104
3.95081
3.9716
3.99334
4.0159
4.03918
4.0631
4.08756
4.11246
4.13774
4.16334
4.18922
4.21536
4.24175
4.2684
4.2953
4.32247
4.34992
4.37765
4.40569
4.43405
4.46276
4.49182
4.52126
4.5511
4.58133
4.61199
4.6431
4.67464
4.70666
4.73914
4.77212
4.8056
4.83958
4.87409
4.90913
4.94471
4.98085
5.01754
5.05481
5.09265
5.13109
5.17013
5.20978
5.25003
5.29091
5.33243
5.37457
5.41737
5.46083
5.50493
5.54971
5.59516
5.6413
5.68812
5.73564
5.78385
5.83277
5.88238
5.93272
5.98378
6.03555
6.08806
6.14129
6.19526
6.24998
6.30544
6.36165
6.41863
6.47637
6.53488
6.59416
6.65424
6.71513
6.77681
6.83931
6.90263
6.96679
7.0318
7.09769
7.16445
7.2321
7.30066
7.37012
7.44051
7.51183
7.58411
7.65735
7.73156
7.80676
7.88296
7.96016
8.03838
8.11762
8.19789
8.2792
8.36157
8.44499
8.52948
8.61505
8.70169
8.78943
8.87827
8.96821
9.05927
9.15146
9.24479
9.33927
9.4349
9.5317
9.62968
9.72884
9.8292
9.93076
10.0336
10.1376
10.2428
10.3494
10.4571
10.5662
10.6766
10.7883
10.9013
11.0156
11.1312
11.2483
11.3667
11.4865
11.6078
11.7305
11.8546
11.9801
12.1072
12.2357
12.3658
12.4974
12.6306
12.7653
12.9016
13.0396
13.1792
13.3205
13.4635
13.6082
13.7547
13.903
14.0531
14.205
14.3588
14.5146
14.6723
14.8319
14.9935
15.1572
15.3229
15.4907
15.6606
15.8327
16.007
16.1835
16.3622
16.5433
16.7266
16.9123
17.1004
17.2908
17.4837
17.6792
17.8771
18.0775
18.2805
18.486
18.6941
18.9048
19.1182
19.3342
19.553
19.7743
19.9985
20.2253
20.455
20.6874
20.9227
21.1608
21.4019
21.6458
21.8926
22.1423
22.3949
22.6504
22.9088
23.1702
23.4346
23.702
23.9723
24.2457
24.522
24.8015
25.084
25.3697
25.6586
25.9505
26.2455
26.5437
26.845
27.1496
27.4573
27.7681
28.0823
28.3997
28.7204
29.0443
29.3716
29.7023
30.0363
30.3735
30.7141
31.0581
31.4053
31.756
32.11
32.4674
32.8283
33.1926
33.5603
33.9316
34.3064
34.6846
35.0663
35.4516
35.8402
36.2323
36.6281
37.0274
37.4302
37.8366
38.2467
38.6603
39.0777
39.4986
39.9231
40.3513
40.7831
41.2186
41.6577
42.1006
42.5472
42.9975
43.4516
43.9095
44.371
44.8363
45.3055
45.7784
46.255
46.7356
47.22
47.7081
48.2001
48.696
49.1958
49.6993
50.2067
50.7182
51.2653
51.8299
52.3618
52.8628
53.3343
53.7775
54.1941
54.5854
54.9531
55.2984
55.6224
55.9266
56.2119
56.4793
56.7301
56.9653
57.1857
57.3923
57.5858
57.7671
57.937
58.0962
58.2453
58.3849
58.5155
58.6379
58.7525
58.8598
58.9603
59.0542
59.1425
59.2242
59.3039
59.3679
59.4731
0.226603
0.37009
1.06695
2.18587
3.48782
4.71775
5.69064
6.29926
6.6105
6.56345
6.39969
6.13437
5.81555
5.48576
5.17545
4.90099
4.66805
4.47647
4.32336
4.20618
4.11696
4.05634
4.01312
3.98166
3.95728
3.93621
3.91505
3.89165
3.86549
3.83715
3.80691
3.7768
3.74798
3.72173
3.69859
3.6803
3.66732
3.65789
3.65192
3.64885
3.64914
3.65136
3.65604
3.66305
3.67206
3.68294
3.69557
3.70981
3.72552
3.7426
3.76095
3.7805
3.80118
3.82292
3.84565
3.86923
3.89356
3.91854
3.94406
3.97002
3.99631
4.02288
4.04968
4.0767
4.10392
4.13135
4.15898
4.18683
4.21491
4.24324
4.27183
4.30069
4.32987
4.35936
4.38919
4.41939
4.44995
4.48091
4.51228
4.54407
4.57629
4.60897
4.64211
4.67572
4.70983
4.74443
4.77953
4.81516
4.85132
4.88802
4.92527
4.96307
5.00144
5.04039
5.07992
5.12004
5.16076
5.20208
5.24402
5.28657
5.32974
5.37354
5.41797
5.46305
5.50877
5.55515
5.60218
5.64987
5.69821
5.74723
5.79692
5.84729
5.89833
5.95007
6.0025
6.05563
6.10946
6.16401
6.21929
6.27528
6.33202
6.38951
6.44775
6.50675
6.56654
6.62712
6.68849
6.75066
6.81366
6.87748
6.94215
7.00769
7.07409
7.14135
7.2095
7.27853
7.34846
7.4193
7.49106
7.56373
7.63735
7.7119
7.78739
7.86384
7.94125
8.01963
8.09898
8.17932
8.26064
8.34296
8.42629
8.51062
8.59599
8.68238
8.7698
8.85828
8.94782
9.03843
9.13012
9.22289
9.31676
9.41174
9.50782
9.60504
9.70338
9.80288
9.90353
10.0053
10.1083
10.2125
10.3179
10.4245
10.5323
10.6414
10.7516
10.8632
10.976
11.0901
11.2055
11.3222
11.4403
11.5597
11.6805
11.8026
11.9261
12.0511
12.1774
12.3052
12.4345
12.5653
12.6977
12.8315
12.9669
13.1039
13.2425
13.3828
13.5247
13.6683
13.8137
13.9608
14.1097
14.2605
14.4131
14.5675
14.7238
14.8821
15.0424
15.2046
15.3689
15.5352
15.7036
15.8741
16.0467
16.2215
16.3986
16.5778
16.7594
16.9432
17.1294
17.3179
17.5087
17.702
17.8977
18.0957
18.2963
18.4993
18.7047
18.9127
19.1233
19.3363
19.552
19.7702
19.9911
20.2146
20.4408
20.6696
20.9013
21.1355
21.3725
21.6121
21.8545
22.0996
22.3475
22.5981
22.8515
23.1078
23.3668
23.6287
23.8935
24.1611
24.4318
24.7053
24.9818
25.2611
25.5434
25.8287
26.1169
26.408
26.7022
26.9993
27.2995
27.6028
27.9091
28.2186
28.5312
28.8468
29.1656
29.4875
29.8124
30.1405
30.4717
30.806
31.1436
31.4843
31.8283
32.1755
32.5259
32.8796
33.2366
33.5967
33.9601
34.3268
34.6967
35.0698
35.4464
35.8263
36.2094
36.5961
36.9861
37.3794
37.7761
38.1762
38.5796
38.9864
39.3967
39.8104
40.2275
40.6482
41.0723
41.4999
41.931
42.3656
42.8036
43.2451
43.6903
44.1389
44.591
45.0468
45.5061
45.969
46.4354
46.9054
47.3789
47.8561
48.3368
48.8511
49.3818
49.8818
50.3525
50.7953
51.2116
51.603
51.9706
52.3158
52.6399
52.944
53.2293
53.4971
53.7481
53.9834
54.204
54.4108
54.6046
54.7861
54.9561
55.1154
55.2646
55.4043
55.5352
55.6577
55.7724
55.8798
55.9803
56.0745
56.1624
56.2452
56.3216
56.3962
56.4561
56.5546
0.226623
0.369679
1.06861
2.19272
3.50199
4.74065
5.71804
6.33127
6.6375
6.58682
6.41567
6.14252
5.8169
5.48495
5.17402
4.89958
4.66729
4.47505
4.31741
4.18981
4.08555
4.0013
3.93177
3.87413
3.82403
3.77932
3.73639
3.69508
3.65317
3.61119
3.57015
3.53216
3.49812
3.4687
3.44434
3.42624
3.41417
3.406
3.4013
3.39999
3.40136
3.40508
3.41121
3.41954
3.4298
3.44185
3.45559
3.47086
3.48756
3.5056
3.52489
3.54535
3.56694
3.58958
3.61319
3.63764
3.66282
3.68863
3.71495
3.74167
3.76871
3.79601
3.82352
3.85121
3.87907
3.90709
3.93528
3.96364
3.99218
4.02093
4.04991
4.07912
4.1086
4.13835
4.16841
4.1988
4.22952
4.26059
4.29204
4.32387
4.3561
4.38875
4.42183
4.45534
4.4893
4.52371
4.5586
4.59398
4.62983
4.66619
4.70305
4.74043
4.77832
4.81674
4.8557
4.8952
4.93524
4.97582
5.01696
5.05866
5.10092
5.14375
5.18716
5.23113
5.2757
5.32084
5.36659
5.41292
5.45986
5.50741
5.55557
5.60435
5.65376
5.7038
5.75448
5.80582
5.85782
5.91048
5.96382
6.01784
6.07255
6.12797
6.18409
6.24094
6.29851
6.3568
6.41585
6.47564
6.53619
6.5975
6.65957
6.72243
6.78608
6.85051
6.91574
6.98177
7.0486
7.11625
7.18471
7.25399
7.32411
7.39506
7.46686
7.53951
7.61301
7.68738
7.76262
7.83874
7.91574
7.99364
8.07243
8.15213
8.23275
8.31429
8.39677
8.48018
8.56456
8.64989
8.73618
8.82345
8.9117
9.00094
9.09118
9.18242
9.27467
9.36795
9.46225
9.5576
9.654
9.75145
9.84996
9.94955
10.0502
10.152
10.2549
10.3589
10.464
10.5702
10.6777
10.7863
10.8961
11.0071
11.1193
11.2327
11.3474
11.4633
11.5805
11.699
11.8188
11.9399
12.0624
12.1863
12.3116
12.4383
12.5665
12.6962
12.8273
12.96
13.0942
13.2301
13.3675
13.5066
13.6474
13.7898
13.934
14.0799
14.2276
14.3771
14.5284
14.6815
14.8366
14.9935
15.1525
15.3133
15.4762
15.641
15.8079
15.977
16.1481
16.3214
16.4967
16.6742
16.8539
17.0358
17.2199
17.4062
17.5947
17.7856
17.9786
18.174
18.3717
18.5718
18.7741
18.9788
19.1859
19.3955
19.6074
19.8218
20.0386
20.2579
20.4796
20.7037
20.9304
21.1595
21.3911
21.6253
21.862
22.1012
22.343
22.5875
22.8346
23.0844
23.3368
23.5917
23.8493
24.1095
24.3723
24.6379
24.906
25.177
25.4506
25.7269
26.0061
26.288
26.5728
26.8603
27.1505
27.4436
27.7394
28.0379
28.3393
28.6436
28.9506
29.2605
29.5733
29.8889
30.2077
30.5292
30.8536
31.181
31.5113
31.8443
32.1804
32.5194
32.8613
33.2063
33.5543
33.9052
34.2592
34.6163
34.9763
35.3393
35.7054
36.0745
36.4466
36.8218
37.2001
37.5815
37.966
38.3536
38.7444
39.1381
39.5351
39.9352
40.3384
40.7447
41.1543
41.567
41.9827
42.4018
42.824
43.2493
43.6777
44.1094
44.5444
45.0094
45.489
45.9411
46.3666
46.7667
47.1427
47.496
47.8279
48.1396
48.4322
48.7066
48.9641
49.2056
49.4319
49.6439
49.8427
50.029
50.2036
50.3671
50.5202
50.6636
50.798
50.9238
51.0416
51.1519
51.2552
51.3519
51.4423
51.527
51.6061
51.6805
51.7492
51.8163
51.8701
51.9583
0.226578
0.369737
1.07511
2.20958
3.52395
4.75536
5.70119
6.28793
6.49611
6.41112
6.19359
5.87974
5.52616
5.17565
4.85199
4.56145
4.30703
4.08807
3.90102
3.74473
3.61275
3.50571
3.41644
3.34514
3.28486
3.23539
3.19053
3.15067
3.11331
3.07897
3.04579
3.01711
2.99208
2.97143
2.95545
2.9444
2.93853
2.93572
2.93622
2.93884
2.94384
2.95083
2.95971
2.97036
2.98255
2.99625
3.01137
3.02777
3.04542
3.06424
3.08416
3.10514
3.12715
3.15015
3.17405
3.19872
3.22404
3.24992
3.27623
3.30287
3.32974
3.3568
3.38399
3.4113
3.43872
3.46624
3.49386
3.52158
3.54943
3.57742
3.60557
3.6339
3.66244
3.6912
3.7202
3.74946
3.779
3.80882
3.83895
3.86939
3.90016
3.93126
3.96272
3.99453
4.02671
4.05925
4.09218
4.12549
4.15919
4.19329
4.2278
4.26271
4.29803
4.33377
4.36992
4.40651
4.44352
4.48097
4.51886
4.55719
4.59597
4.6352
4.6749
4.71506
4.75569
4.7968
4.83839
4.88048
4.92305
4.96612
5.00971
5.0538
5.09842
5.14355
5.18922
5.23541
5.28215
5.32943
5.37726
5.42564
5.47458
5.52408
5.57414
5.62478
5.67599
5.72777
5.78013
5.83308
5.88662
5.94076
5.9955
6.05084
6.10679
6.16335
6.22054
6.27835
6.33678
6.39585
6.45556
6.51592
6.57692
6.63858
6.70091
6.7639
6.82757
6.89191
6.95695
7.02267
7.0891
7.15623
7.22407
7.29263
7.36191
7.43191
7.50265
7.57414
7.64639
7.71939
7.79315
7.86767
7.94298
8.01906
8.09592
8.17358
8.25204
8.3313
8.41138
8.49227
8.57399
8.65655
8.73995
8.82421
8.90931
8.99529
9.08216
9.1699
9.25853
9.34807
9.43855
9.52999
9.62237
9.71569
9.80997
9.90523
10.0015
10.0988
10.1971
10.2964
10.3968
10.4983
10.6009
10.7047
10.8095
10.9155
11.0227
11.1311
11.2408
11.3516
11.4638
11.5773
11.6921
11.8082
11.9257
12.0446
12.1649
12.2866
12.4097
12.5344
12.6605
12.7882
12.9174
13.0481
13.1805
13.3144
13.45
13.5872
13.7261
13.8667
14.0091
14.1532
14.2991
14.4466
14.596
14.7471
14.9
15.0547
15.2112
15.3696
15.5298
15.6919
15.8559
16.0217
16.1895
16.3592
16.5309
16.7045
16.8801
17.0577
17.2371
17.4186
17.6021
17.7875
17.975
18.1645
18.3559
18.5495
18.7451
18.9427
19.1424
19.3442
19.5482
19.7543
19.9624
20.1727
20.385
20.5995
20.816
21.0348
21.2557
21.4787
21.704
21.9314
22.1611
22.3931
22.6273
22.8638
23.1025
23.3433
23.5865
23.8318
24.0794
24.3293
24.5815
24.8359
25.0927
25.3518
25.6134
25.8772
26.1434
26.4119
26.6827
26.9558
27.2313
27.5091
27.7894
28.072
28.3569
28.6445
28.9345
29.2267
29.5215
29.8187
30.1182
30.4202
30.7246
31.0315
31.3408
31.6527
31.9671
32.2839
32.6032
32.925
33.2493
33.576
33.9053
34.2371
34.5713
34.9081
35.2474
35.5892
35.9333
36.2802
36.6294
36.9811
37.3352
37.7138
38.1043
38.472
38.818
39.1433
39.4489
39.7359
40.0053
40.2581
40.4954
40.7178
40.9265
41.122
41.3054
41.4769
41.6378
41.7883
41.9295
42.0616
42.1854
42.3011
42.4096
42.511
42.606
42.6948
42.778
42.8559
42.9286
42.997
43.0605
43.1207
43.1755
43.2299
43.2725
43.3432
0.22616
0.379218
1.08577
2.17705
3.36848
4.38581
5.06099
5.3384
5.24235
4.98357
4.60746
4.18529
3.76897
3.38698
3.0513
2.76388
2.52373
2.32612
2.16554
2.03673
1.93435
1.85465
1.79391
1.74964
1.71782
1.69538
1.67889
1.66617
1.6567
1.64914
1.64241
1.63711
1.63399
1.63297
1.6335
1.63543
1.63896
1.64376
1.64951
1.6562
1.6638
1.67211
1.68116
1.691
1.70148
1.71272
1.72472
1.73742
1.75079
1.76486
1.77959
1.79499
1.81109
1.82781
1.84512
1.86286
1.88091
1.89923
1.91768
1.93616
1.95464
1.97306
1.99141
2.00967
2.0279
2.04611
2.06427
2.08237
2.10042
2.11846
2.13648
2.15451
2.17257
2.19067
2.20883
2.22706
2.24537
2.26377
2.28228
2.3009
2.31965
2.33852
2.35753
2.37668
2.39598
2.41543
2.43505
2.45483
2.47478
2.49489
2.51519
2.53565
2.5563
2.57713
2.59814
2.61933
2.64071
2.66228
2.68403
2.70597
2.72811
2.75043
2.77295
2.79568
2.81859
2.84172
2.86504
2.88857
2.91231
2.93627
2.96047
2.98489
3.00954
3.03442
3.05952
3.08485
3.11042
3.13622
3.16226
3.18854
3.21507
3.24184
3.26885
3.29612
3.32365
3.35142
3.37945
3.40775
3.4363
3.46512
3.49421
3.52358
3.55321
3.58312
3.61329
3.64375
3.67448
3.7055
3.7368
3.76839
3.80027
3.83245
3.86492
3.89769
3.93076
3.96414
3.99782
4.03181
4.06612
4.10074
4.13568
4.17094
4.20652
4.24243
4.27868
4.31527
4.3522
4.38948
4.42709
4.46504
4.50334
4.542
4.58102
4.6204
4.66014
4.70025
4.74074
4.7816
4.82284
4.86447
4.90649
4.94889
4.9917
5.03491
5.07853
5.12256
5.16701
5.2119
5.25724
5.30305
5.34927
5.39594
5.44307
5.49067
5.53874
5.5873
5.63636
5.68592
5.736
5.7866
5.83774
5.88942
5.94165
5.99446
6.04783
6.1018
6.15636
6.21154
6.26737
6.32387
6.38102
6.4388
6.49724
6.55635
6.61615
6.67666
6.73787
6.7998
6.86247
6.92588
6.99004
7.05496
7.12064
7.18709
7.25435
7.3224
7.39125
7.46098
7.53157
7.60296
7.67514
7.74815
7.82199
7.89668
7.97221
8.04861
8.12586
8.20398
8.28296
8.36283
8.44356
8.52521
8.60774
8.69118
8.77558
8.86093
8.94714
9.03423
9.12222
9.21112
9.30094
9.39167
9.48333
9.57592
9.66945
9.76392
9.85933
9.95569
10.0531
10.1517
10.2512
10.3517
10.4531
10.5554
10.6587
10.763
10.8682
10.9744
11.0816
11.1898
11.299
11.4092
11.5205
11.6329
11.7462
11.8606
11.9759
12.0922
12.2095
12.3279
12.4472
12.5676
12.6891
12.8116
12.9351
13.0598
13.1856
13.3124
13.4402
13.569
13.6989
13.8298
13.9618
14.0949
14.229
14.3643
14.5006
14.6381
14.7767
14.9163
15.057
15.1988
15.3416
15.4856
15.6306
15.7768
15.924
16.0724
16.2219
16.3725
16.5242
16.677
16.8308
16.9858
17.1418
17.299
17.4572
17.6165
17.777
17.9384
18.1009
18.2645
18.4291
18.5947
18.7613
18.9391
19.1225
19.2951
19.4574
19.6096
19.7524
19.8863
20.0119
20.1296
20.2399
20.3432
20.4401
20.5305
20.6153
20.6945
20.7688
20.8382
20.9033
20.964
21.0209
21.074
21.1238
21.1702
21.2138
21.2544
21.2924
21.3279
21.361
21.3923
21.4209
21.4489
21.4732
21.4989
21.5172
21.5491
0.184963
0.189303
0.208873
0.259757
0.352934
0.492085
0.667969
0.863327
1.05691
1.23154
1.38306
1.51248
1.63252
1.75558
1.89464
2.05816
2.23026
2.40994
2.58882
2.76795
2.93398
3.08862
3.22338
3.33797
3.42582
3.49036
3.53033
3.55462
3.56625
3.57421
3.58045
3.58969
3.6003
3.61126
3.62174
3.6317
3.63991
3.64719
3.65354
3.65894
3.66389
3.66856
3.67328
3.67807
3.68301
3.68802
3.6931
3.69833
3.70374
3.70941
3.71541
3.72179
3.7286
3.73584
3.74363
3.75203
3.76105
3.77069
3.78094
3.79177
3.80324
3.81535
3.82813
3.84157
3.85566
3.8704
3.88575
3.90171
3.91825
3.93536
3.95301
3.97119
3.98988
4.00909
4.02878
4.04896
4.06961
4.09073
4.11231
4.13434
4.15682
4.17976
4.20314
4.22696
4.25123
4.27594
4.3011
4.3267
4.35274
4.37924
4.40619
4.43359
4.46145
4.48978
4.51856
4.54782
4.57755
4.60776
4.63845
4.66963
4.7013
4.73347
4.76614
4.79932
4.83301
4.86722
4.90196
4.93723
4.97303
5.00938
5.04628
5.08374
5.12176
5.16035
5.19951
5.23925
5.27959
5.32052
5.36206
5.40421
5.44698
5.49038
5.5344
5.57908
5.6244
5.67038
5.71703
5.76435
5.81236
5.86106
5.91046
5.96057
6.01141
6.06298
6.11529
6.16836
6.2222
6.2768
6.3322
6.38839
6.44539
6.50321
6.56187
6.62137
6.68172
6.74295
6.80505
6.86805
6.93195
6.99676
7.0625
7.12918
7.19682
7.26541
7.33498
7.40553
7.47708
7.54963
7.62321
7.69782
7.77348
7.85019
7.92797
8.00683
8.08678
8.16783
8.25
8.3333
8.41775
8.50334
8.59011
8.67806
8.76721
8.85757
8.94916
9.04197
9.13605
9.2314
9.32803
9.42596
9.52521
9.6258
9.72776
9.83108
9.93579
10.0419
10.1495
10.2585