/*--------------------------------*- C++ -*----------------------------------*\
| =========                 |                                                 |
| \\      /  F ield         | OpenFOAM: The Open Source CFD Toolbox           |
|  \\    /   O peration     | Version:  2.4.0                                 |
|   \\  /    A nd           | Web:      www.OpenFOAM.org                      |
|    \\/     M anipulation  |                                                 |
\*---------------------------------------------------------------------------*/
FoamFile
{
    version     2.0;
    format      ascii;
    class       volScalarField;
    location    "15000/fluid";
    object      mut;
}
// * * * * * * * * * * * * * * * * * * * * * * * * * * * * * * * * * * * * * //

dimensions      [1 -1 -1 0 0 0 0];

internalField   nonuniform List<scalar> 
105000
(
7.88167e-05
0.000128774
0.000368743
0.000752718
0.00119883
0.00161936
0.00195077
0.00215839
0.00226256
0.00224728
0.0021908
0.00209948
0.00198961
0.0018757
0.00176796
0.00167213
0.00159009
0.001521
0.00146569
0.00142089
0.00138853
0.00136609
0.00135075
0.00133971
0.00133325
0.00132735
0.00132141
0.00131469
0.00130662
0.0012975
0.00128777
0.00127773
0.00126802
0.00125873
0.00124967
0.0012413
0.00123375
0.00122651
0.00121954
0.00121288
0.00120653
0.00120043
0.00119457
0.00118897
0.0011836
0.00117847
0.00117356
0.00116887
0.00116437
0.00116006
0.00115593
0.00115196
0.00114815
0.00114449
0.00114096
0.00113756
0.00113426
0.00113105
0.00112791
0.00112483
0.00112179
0.00111881
0.00111586
0.00111296
0.0011101
0.00110729
0.00110453
0.00110182
0.00109916
0.00109654
0.00109398
0.00109148
0.00108902
0.00108662
0.00108427
0.00108197
0.00107973
0.00107754
0.00107539
0.0010733
0.00107126
0.00106927
0.00106733
0.00106543
0.00106358
0.00106177
0.00106001
0.0010583
0.00105662
0.00105499
0.0010534
0.00105185
0.00105034
0.00104887
0.00104744
0.00104604
0.00104468
0.00104336
0.00104207
0.00104082
0.0010396
0.00103841
0.00103725
0.00103613
0.00103504
0.00103398
0.00103295
0.00103194
0.00103097
0.00103003
0.00102911
0.00102822
0.00102736
0.00102652
0.00102571
0.00102493
0.00102417
0.00102344
0.00102273
0.00102205
0.00102139
0.00102075
0.00102014
0.00101955
0.00101899
0.00101845
0.00101793
0.00101743
0.00101695
0.0010165
0.00101606
0.00101565
0.00101526
0.00101489
0.00101453
0.0010142
0.00101388
0.00101359
0.00101331
0.00101304
0.0010128
0.00101258
0.00101237
0.00101217
0.001012
0.00101184
0.0010117
0.00101158
0.00101147
0.00101138
0.0010113
0.00101125
0.00101121
0.00101118
0.00101118
0.00101119
0.00101122
0.00101126
0.00101132
0.0010114
0.00101149
0.00101161
0.00101173
0.00101188
0.00101204
0.00101222
0.00101241
0.00101262
0.00101284
0.00101308
0.00101333
0.0010136
0.00101389
0.00101419
0.0010145
0.00101483
0.00101518
0.00101555
0.00101593
0.00101632
0.00101673
0.00101716
0.00101761
0.00101808
0.00101856
0.00101906
0.00101958
0.00102013
0.00102069
0.00102127
0.00102188
0.00102251
0.00102316
0.00102384
0.00102454
0.00102527
0.00102603
0.00102681
0.00102763
0.00102848
0.00102935
0.00103026
0.00103121
0.00103218
0.00103319
0.00103424
0.00103532
0.00103644
0.0010376
0.00103879
0.00104003
0.00104131
0.00104262
0.00104398
0.00104539
0.00104683
0.00104832
0.00104985
0.00105143
0.00105306
0.00105472
0.00105643
0.00105819
0.00105999
0.00106184
0.00106373
0.00106566
0.00106764
0.00106967
0.00107174
0.00107385
0.00107601
0.00107821
0.00108045
0.00108274
0.00108507
0.00108744
0.00108986
0.00109231
0.00109481
0.00109734
0.00109992
0.00110253
0.00110518
0.00110786
0.00111059
0.00111335
0.00111614
0.00111897
0.00112183
0.00112472
0.00112765
0.0011306
0.00113358
0.00113659
0.00113963
0.0011427
0.00114579
0.00114892
0.00115207
0.00115524
0.00115845
0.00116168
0.00116493
0.00116821
0.00117152
0.00117484
0.00117819
0.00118156
0.00118494
0.00118835
0.00119178
0.00119522
0.00119869
0.00120217
0.00120566
0.00120918
0.00121271
0.00121625
0.00121981
0.00122339
0.00122697
0.00123057
0.00123418
0.00123779
0.00124142
0.00124507
0.00124872
0.00125238
0.00125605
0.00125973
0.00126342
0.00126712
0.00127082
0.00127453
0.00127824
0.00128197
0.0012857
0.00128944
0.00129319
0.00129694
0.0013007
0.00130446
0.00130823
0.00131201
0.00131579
0.00131958
0.00132338
0.00132719
0.001331
0.00133483
0.00133867
0.00134251
0.00134637
0.00135024
0.00135437
0.00135862
0.0013626
0.00136635
0.00136988
0.00137319
0.00137631
0.00137923
0.00138198
0.00138456
0.001387
0.00138928
0.00139144
0.00139346
0.00139536
0.00139716
0.00139884
0.00140042
0.00140191
0.00140331
0.00140463
0.00140588
0.00140704
0.00140814
0.00140917
0.00141014
0.00141106
0.00141192
0.00141273
0.00141349
0.0014142
0.00141487
0.00141553
0.00141604
0.001417
7.88176e-05
0.000128758
0.000368723
0.000752745
0.00119896
0.00161964
0.00195126
0.00215903
0.00226344
0.00224825
0.00219184
0.0021006
0.00199076
0.00187689
0.00176913
0.00167334
0.00159126
0.0015222
0.00146687
0.00142207
0.00138974
0.00136732
0.00135191
0.0013409
0.00133446
0.00132855
0.00132264
0.00131598
0.00130788
0.00129878
0.00128907
0.00127898
0.0012692
0.00125967
0.00125024
0.00124148
0.00123353
0.00122585
0.00121847
0.00121143
0.00120473
0.00119835
0.00119226
0.00118648
0.00118099
0.00117577
0.00117081
0.0011661
0.0011616
0.00115731
0.00115322
0.0011493
0.00114554
0.00114194
0.00113847
0.00113513
0.00113189
0.00112873
0.00112564
0.0011226
0.00111962
0.00111667
0.00111377
0.0011109
0.00110808
0.00110531
0.00110257
0.00109988
0.00109724
0.00109465
0.00109211
0.00108962
0.00108717
0.00108478
0.00108244
0.00108016
0.00107792
0.00107573
0.0010736
0.00107151
0.00106947
0.00106748
0.00106554
0.00106364
0.00106179
0.00105999
0.00105823
0.00105651
0.00105484
0.0010532
0.00105161
0.00105006
0.00104855
0.00104707
0.00104564
0.00104424
0.00104288
0.00104155
0.00104026
0.001039
0.00103778
0.00103659
0.00103543
0.0010343
0.00103321
0.00103214
0.00103111
0.0010301
0.00102912
0.00102817
0.00102725
0.00102636
0.00102549
0.00102465
0.00102384
0.00102305
0.00102229
0.00102155
0.00102084
0.00102015
0.00101949
0.00101885
0.00101823
0.00101764
0.00101707
0.00101653
0.001016
0.0010155
0.00101502
0.00101456
0.00101412
0.0010137
0.00101331
0.00101293
0.00101257
0.00101223
0.00101191
0.00101161
0.00101133
0.00101106
0.00101081
0.00101058
0.00101037
0.00101017
0.00100999
0.00100983
0.00100968
0.00100955
0.00100944
0.00100935
0.00100927
0.00100921
0.00100917
0.00100914
0.00100913
0.00100914
0.00100916
0.00100921
0.00100926
0.00100934
0.00100943
0.00100954
0.00100967
0.00100981
0.00100997
0.00101014
0.00101033
0.00101054
0.00101076
0.00101099
0.00101125
0.00101151
0.0010118
0.0010121
0.00101241
0.00101274
0.00101308
0.00101345
0.00101382
0.00101422
0.00101463
0.00101506
0.0010155
0.00101597
0.00101645
0.00101695
0.00101747
0.00101801
0.00101857
0.00101916
0.00101976
0.00102039
0.00102104
0.00102172
0.00102242
0.00102315
0.00102391
0.00102469
0.00102551
0.00102635
0.00102723
0.00102814
0.00102908
0.00103005
0.00103106
0.00103211
0.00103319
0.0010343
0.00103546
0.00103666
0.00103789
0.00103917
0.00104049
0.00104184
0.00104325
0.00104469
0.00104618
0.00104771
0.00104928
0.00105091
0.00105257
0.00105428
0.00105603
0.00105783
0.00105968
0.00106157
0.0010635
0.00106548
0.0010675
0.00106956
0.00107167
0.00107383
0.00107602
0.00107826
0.00108055
0.00108288
0.00108524
0.00108766
0.0010901
0.0010926
0.00109512
0.00109769
0.0011003
0.00110294
0.00110563
0.00110834
0.0011111
0.00111388
0.00111671
0.00111956
0.00112244
0.00112536
0.00112831
0.00113128
0.00113428
0.00113731
0.00114038
0.00114346
0.00114658
0.00114972
0.00115289
0.00115609
0.00115931
0.00116256
0.00116583
0.00116912
0.00117244
0.00117578
0.00117914
0.00118251
0.00118591
0.00118933
0.00119276
0.00119622
0.00119969
0.00120318
0.00120668
0.00121021
0.00121374
0.00121729
0.00122085
0.00122442
0.00122801
0.00123161
0.00123522
0.00123883
0.00124247
0.00124611
0.00124976
0.00125342
0.00125709
0.00126077
0.00126445
0.00126815
0.00127185
0.00127555
0.00127927
0.00128299
0.00128671
0.00129045
0.00129419
0.00129794
0.00130169
0.00130545
0.00130922
0.00131299
0.00131677
0.00132056
0.00132436
0.00132816
0.00133197
0.0013358
0.00133963
0.00134348
0.00134734
0.00135146
0.00135569
0.00135967
0.00136341
0.00136692
0.00137023
0.00137333
0.00137625
0.00137899
0.00138157
0.00138399
0.00138627
0.00138842
0.00139044
0.00139234
0.00139412
0.0013958
0.00139738
0.00139886
0.00140026
0.00140158
0.00140281
0.00140398
0.00140507
0.0014061
0.00140707
0.00140799
0.00140884
0.00140965
0.00141041
0.00141112
0.00141178
0.00141244
0.00141295
0.00141391
7.88183e-05
0.000128721
0.000368684
0.000752807
0.00119924
0.00162022
0.00195223
0.00216032
0.00226517
0.00225011
0.00219386
0.00210273
0.00199294
0.0018791
0.00177131
0.00167553
0.00159336
0.00152435
0.00146897
0.00142413
0.00139182
0.00136946
0.00135397
0.00134309
0.00133669
0.00133074
0.00132487
0.00131826
0.00131011
0.00130101
0.0012912
0.001281
0.00127091
0.00126086
0.00125067
0.00124101
0.00123221
0.00122374
0.00121563
0.00120793
0.00120065
0.00119379
0.00118732
0.00118124
0.00117553
0.00117016
0.00116511
0.00116036
0.00115587
0.00115162
0.00114758
0.00114374
0.00114008
0.00113658
0.00113322
0.00112998
0.00112684
0.00112378
0.00112079
0.00111785
0.00111495
0.00111209
0.00110927
0.00110648
0.00110373
0.00110101
0.00109833
0.0010957
0.0010931
0.00109055
0.00108804
0.00108558
0.00108317
0.0010808
0.00107848
0.00107621
0.00107399
0.00107182
0.0010697
0.00106762
0.00106559
0.00106361
0.00106167
0.00105978
0.00105793
0.00105613
0.00105437
0.00105265
0.00105097
0.00104934
0.00104775
0.00104619
0.00104468
0.0010432
0.00104176
0.00104036
0.00103899
0.00103766
0.00103637
0.00103511
0.00103388
0.00103268
0.00103152
0.00103038
0.00102928
0.00102821
0.00102717
0.00102616
0.00102517
0.00102422
0.00102329
0.00102239
0.00102152
0.00102067
0.00101985
0.00101906
0.00101829
0.00101754
0.00101682
0.00101613
0.00101546
0.00101481
0.00101419
0.00101359
0.00101301
0.00101246
0.00101193
0.00101142
0.00101093
0.00101046
0.00101002
0.00100959
0.00100919
0.0010088
0.00100843
0.00100808
0.00100775
0.00100744
0.00100715
0.00100688
0.00100662
0.00100638
0.00100616
0.00100595
0.00100576
0.00100559
0.00100544
0.0010053
0.00100519
0.00100508
0.001005
0.00100493
0.00100488
0.00100485
0.00100484
0.00100484
0.00100486
0.0010049
0.00100495
0.00100502
0.00100511
0.00100521
0.00100533
0.00100547
0.00100562
0.00100579
0.00100598
0.00100618
0.0010064
0.00100663
0.00100688
0.00100714
0.00100742
0.00100771
0.00100802
0.00100835
0.00100869
0.00100905
0.00100942
0.00100981
0.00101022
0.00101065
0.00101109
0.00101155
0.00101203
0.00101253
0.00101305
0.00101359
0.00101415
0.00101473
0.00101533
0.00101596
0.00101661
0.00101728
0.00101798
0.00101871
0.00101946
0.00102025
0.00102106
0.0010219
0.00102277
0.00102368
0.00102462
0.00102559
0.0010266
0.00102764
0.00102872
0.00102984
0.00103099
0.00103218
0.00103342
0.00103469
0.001036
0.00103736
0.00103876
0.0010402
0.00104168
0.00104321
0.00104478
0.0010464
0.00104806
0.00104976
0.00105151
0.00105331
0.00105514
0.00105703
0.00105895
0.00106093
0.00106294
0.001065
0.0010671
0.00106925
0.00107144
0.00107367
0.00107595
0.00107827
0.00108063
0.00108303
0.00108547
0.00108795
0.00109047
0.00109303
0.00109563
0.00109826
0.00110093
0.00110363
0.00110638
0.00110915
0.00111196
0.0011148
0.00111767
0.00112057
0.0011235
0.00112646
0.00112945
0.00113247
0.00113551
0.00113859
0.00114169
0.00114481
0.00114797
0.00115115
0.00115435
0.00115758
0.00116084
0.00116412
0.00116741
0.00117074
0.00117408
0.00117744
0.00118082
0.00118422
0.00118763
0.00119106
0.00119452
0.00119799
0.00120147
0.00120497
0.00120849
0.00121202
0.00121556
0.00121911
0.00122268
0.00122626
0.00122985
0.00123344
0.00123705
0.00124068
0.00124431
0.00124795
0.0012516
0.00125525
0.00125891
0.00126259
0.00126626
0.00126995
0.00127364
0.00127734
0.00128105
0.00128476
0.00128848
0.00129221
0.00129593
0.00129967
0.00130342
0.00130717
0.00131092
0.00131469
0.00131847
0.00132225
0.00132604
0.00132984
0.00133366
0.00133748
0.00134132
0.00134541
0.00134962
0.00135358
0.00135729
0.00136079
0.00136407
0.00136716
0.00137006
0.00137278
0.00137535
0.00137775
0.00138002
0.00138216
0.00138416
0.00138605
0.00138782
0.00138949
0.00139106
0.00139254
0.00139393
0.00139524
0.00139647
0.00139762
0.00139871
0.00139974
0.0014007
0.00140161
0.00140246
0.00140326
0.00140402
0.00140473
0.00140539
0.00140604
0.00140655
0.0014075
7.8819e-05
0.000128658
0.00036862
0.000752906
0.00119969
0.00162114
0.00195375
0.00216232
0.00226782
0.00225295
0.00219692
0.00210595
0.00199625
0.00188244
0.00177462
0.00167881
0.00159657
0.00152751
0.0014721
0.00142722
0.00139481
0.00137296
0.00135767
0.00134701
0.00134024
0.00133426
0.00132836
0.00132154
0.00131332
0.00130403
0.00129395
0.00128332
0.00127248
0.00126142
0.00124991
0.00123891
0.00122892
0.00121937
0.00121033
0.00120182
0.00119386
0.00118644
0.00117952
0.0011731
0.00116713
0.00116158
0.00115642
0.0011516
0.00114711
0.00114289
0.00113892
0.00113517
0.00113162
0.00112824
0.00112502
0.00112192
0.00111892
0.001116
0.00111314
0.00111034
0.00110757
0.00110483
0.00110212
0.00109943
0.00109678
0.00109415
0.00109155
0.00108899
0.00108646
0.00108397
0.00108151
0.0010791
0.00107673
0.0010744
0.00107212
0.00106988
0.00106768
0.00106553
0.00106343
0.00106137
0.00105935
0.00105738
0.00105545
0.00105357
0.00105173
0.00104993
0.00104817
0.00104646
0.00104479
0.00104315
0.00104156
0.00104001
0.00103849
0.00103701
0.00103557
0.00103416
0.00103279
0.00103146
0.00103016
0.00102889
0.00102766
0.00102646
0.00102529
0.00102415
0.00102304
0.00102196
0.00102091
0.00101989
0.0010189
0.00101794
0.001017
0.00101609
0.00101521
0.00101435
0.00101352
0.00101272
0.00101194
0.00101119
0.00101046
0.00100976
0.00100908
0.00100843
0.00100779
0.00100718
0.0010066
0.00100603
0.00100549
0.00100497
0.00100447
0.00100399
0.00100353
0.0010031
0.00100268
0.00100228
0.0010019
0.00100154
0.0010012
0.00100088
0.00100057
0.00100028
0.00100001
0.000999761
0.000999527
0.000999311
0.000999112
0.000998931
0.000998768
0.000998622
0.000998494
0.000998383
0.000998289
0.000998214
0.000998156
0.000998116
0.000998094
0.000998089
0.000998101
0.000998131
0.000998178
0.000998241
0.000998321
0.000998418
0.000998532
0.000998662
0.000998808
0.000998971
0.000999149
0.000999344
0.000999553
0.00099978
0.00100002
0.00100028
0.00100055
0.00100084
0.00100114
0.00100146
0.0010018
0.00100215
0.00100252
0.00100291
0.00100331
0.00100373
0.00100417
0.00100462
0.0010051
0.00100559
0.00100611
0.00100664
0.0010072
0.00100777
0.00100837
0.00100899
0.00100964
0.00101031
0.00101101
0.00101173
0.00101248
0.00101326
0.00101407
0.0010149
0.00101577
0.00101668
0.00101761
0.00101858
0.00101958
0.00102062
0.00102169
0.0010228
0.00102395
0.00102514
0.00102637
0.00102763
0.00102894
0.00103029
0.00103168
0.00103312
0.00103459
0.00103612
0.00103768
0.00103929
0.00104095
0.00104264
0.00104438
0.00104617
0.001048
0.00104987
0.00105179
0.00105375
0.00105576
0.00105781
0.0010599
0.00106203
0.00106421
0.00106643
0.00106869
0.001071
0.00107335
0.00107573
0.00107816
0.00108062
0.00108313
0.00108567
0.00108825
0.00109086
0.00109352
0.0010962
0.00109892
0.00110168
0.00110446
0.00110728
0.00111013
0.00111301
0.00111592
0.00111886
0.00112182
0.00112482
0.00112784
0.00113089
0.00113397
0.00113707
0.0011402
0.00114336
0.00114654
0.00114974
0.00115297
0.00115623
0.0011595
0.00116279
0.00116611
0.00116944
0.00117279
0.00117616
0.00117955
0.00118295
0.00118638
0.00118982
0.00119327
0.00119674
0.00120023
0.00120373
0.00120724
0.00121076
0.0012143
0.00121784
0.0012214
0.00122497
0.00122855
0.00123214
0.00123574
0.00123934
0.00124296
0.00124658
0.00125021
0.00125385
0.0012575
0.00126115
0.00126481
0.00126848
0.00127215
0.00127583
0.00127951
0.00128321
0.0012869
0.0012906
0.00129432
0.00129803
0.00130176
0.00130549
0.00130923
0.00131298
0.00131673
0.0013205
0.00132428
0.00132807
0.00133187
0.00133592
0.00134009
0.00134401
0.00134769
0.00135115
0.0013544
0.00135746
0.00136034
0.00136304
0.00136558
0.00136796
0.00137021
0.00137232
0.0013743
0.00137617
0.00137793
0.00137959
0.00138114
0.00138261
0.00138398
0.00138528
0.0013865
0.00138764
0.00138872
0.00138974
0.00139069
0.00139159
0.00139244
0.00139323
0.00139398
0.00139468
0.00139534
0.00139598
0.00139649
0.00139743
7.88185e-05
0.000128555
0.000368526
0.000753053
0.00120033
0.00162245
0.0019559
0.00216515
0.00227156
0.00225695
0.00220121
0.00211044
0.00200083
0.00188703
0.0017792
0.00168331
0.00160107
0.00153201
0.00147666
0.00143175
0.00139979
0.00137767
0.00136243
0.00135223
0.00134523
0.00133932
0.00133318
0.00132607
0.00131748
0.00130765
0.00129676
0.001285
0.0012727
0.00125986
0.00124643
0.00123375
0.00122236
0.0012116
0.00120153
0.00119232
0.00118363
0.00117563
0.00116827
0.0011615
0.00115527
0.00114954
0.00114426
0.00113938
0.00113487
0.00113069
0.00112679
0.00112313
0.0011197
0.00111646
0.00111338
0.00111044
0.0011076
0.00110485
0.00110215
0.0010995
0.00109689
0.00109429
0.00109172
0.00108917
0.00108663
0.00108412
0.00108162
0.00107915
0.00107671
0.0010743
0.00107192
0.00106957
0.00106725
0.00106498
0.00106274
0.00106054
0.00105839
0.00105627
0.00105419
0.00105216
0.00105017
0.00104822
0.00104631
0.00104444
0.00104261
0.00104083
0.00103908
0.00103738
0.00103571
0.00103408
0.00103249
0.00103094
0.00102943
0.00102795
0.00102651
0.0010251
0.00102373
0.00102239
0.00102109
0.00101982
0.00101858
0.00101738
0.0010162
0.00101506
0.00101394
0.00101286
0.0010118
0.00101078
0.00100978
0.00100881
0.00100786
0.00100695
0.00100606
0.00100519
0.00100436
0.00100354
0.00100276
0.00100199
0.00100126
0.00100054
0.000999853
0.000999186
0.000998543
0.000997923
0.000997325
0.000996748
0.000996192
0.000995659
0.000995147
0.000994655
0.000994183
0.00099373
0.000993297
0.000992883
0.000992488
0.000992112
0.000991755
0.000991416
0.000991096
0.000990794
0.00099051
0.000990245
0.000989997
0.000989767
0.000989556
0.000989362
0.000989187
0.000989029
0.00098889
0.000988768
0.000988665
0.000988579
0.000988512
0.000988462
0.000988429
0.000988414
0.000988416
0.000988436
0.000988474
0.000988528
0.0009886
0.000988687
0.000988792
0.000988912
0.000989049
0.000989202
0.000989371
0.000989557
0.000989758
0.000989974
0.000990208
0.000990456
0.00099072
0.000991
0.000991295
0.000991607
0.000991936
0.000992281
0.000992642
0.00099302
0.000993416
0.000993831
0.000994262
0.00099471
0.000995177
0.000995665
0.000996173
0.0009967
0.000997249
0.000997818
0.000998411
0.000999027
0.000999667
0.00100033
0.00100102
0.00100174
0.00100248
0.00100325
0.00100405
0.00100488
0.00100575
0.00100664
0.00100757
0.00100853
0.00100952
0.00101055
0.00101162
0.00101272
0.00101386
0.00101504
0.00101626
0.00101752
0.00101882
0.00102016
0.00102154
0.00102296
0.00102443
0.00102594
0.00102749
0.00102909
0.00103073
0.00103242
0.00103414
0.00103592
0.00103773
0.00103959
0.00104149
0.00104344
0.00104543
0.00104746
0.00104954
0.00105165
0.00105381
0.00105601
0.00105826
0.00106054
0.00106287
0.00106523
0.00106764
0.00107008
0.00107256
0.00107508
0.00107763
0.00108022
0.00108285
0.0010855
0.00108819
0.00109092
0.00109367
0.00109646
0.00109928
0.00110213
0.00110501
0.00110791
0.00111085
0.00111381
0.0011168
0.00111982
0.00112287
0.00112593
0.00112903
0.00113215
0.00113529
0.00113846
0.00114166
0.00114487
0.00114811
0.00115136
0.00115464
0.00115793
0.00116124
0.00116457
0.00116792
0.00117129
0.00117467
0.00117807
0.00118148
0.00118491
0.00118835
0.00119181
0.00119527
0.00119875
0.00120224
0.00120574
0.00120926
0.00121278
0.00121631
0.00121986
0.00122341
0.00122697
0.00123054
0.00123412
0.0012377
0.00124129
0.00124489
0.0012485
0.00125211
0.00125572
0.00125935
0.00126298
0.00126662
0.00127026
0.00127391
0.00127756
0.00128122
0.00128489
0.00128856
0.00129224
0.00129593
0.00129963
0.00130334
0.00130705
0.00131078
0.00131452
0.00131827
0.00132226
0.00132637
0.00133024
0.00133387
0.00133728
0.00134049
0.0013435
0.00134634
0.001349
0.00135151
0.00135386
0.00135607
0.00135816
0.00136012
0.00136196
0.00136369
0.00136532
0.00136685
0.0013683
0.00136965
0.00137093
0.00137213
0.00137327
0.00137433
0.00137533
0.00137627
0.00137716
0.00137799
0.00137878
0.00137951
0.00138021
0.00138086
0.00138149
0.00138199
0.00138292
7.88152e-05
0.000128389
0.000368371
0.000753271
0.00120128
0.00162441
0.00195906
0.00216931
0.00227709
0.00226291
0.00220768
0.00211732
0.00200797
0.00189439
0.00178666
0.00169099
0.00160899
0.0015404
0.00148563
0.00144184
0.00141049
0.0013891
0.0013741
0.00136366
0.00135594
0.00134923
0.00134213
0.00133388
0.00132392
0.00131244
0.00129946
0.00128542
0.00127047
0.00125508
0.00123926
0.00122474
0.00121194
0.00120004
0.00118911
0.00117903
0.0011699
0.0011614
0.00115363
0.00114656
0.00114011
0.00113421
0.00112882
0.00112389
0.00111936
0.0011152
0.00111135
0.00110778
0.00110446
0.00110135
0.00109842
0.00109563
0.00109296
0.00109038
0.00108785
0.00108538
0.00108293
0.0010805
0.00107808
0.00107567
0.00107328
0.00107089
0.00106851
0.00106615
0.00106381
0.00106149
0.00105919
0.00105692
0.00105468
0.00105246
0.00105028
0.00104813
0.00104602
0.00104394
0.00104191
0.0010399
0.00103794
0.00103601
0.00103413
0.00103228
0.00103047
0.0010287
0.00102696
0.00102527
0.00102361
0.00102199
0.0010204
0.00101886
0.00101735
0.00101587
0.00101443
0.00101302
0.00101165
0.00101031
0.001009
0.00100772
0.00100648
0.00100527
0.00100409
0.00100293
0.00100181
0.00100072
0.000999653
0.000998616
0.000997608
0.000996625
0.000995671
0.000994743
0.000993841
0.000992966
0.000992115
0.000991289
0.000990489
0.000989713
0.00098896
0.000988231
0.000987526
0.000986843
0.000986183
0.000985545
0.000984929
0.000984334
0.00098376
0.000983206
0.000982672
0.00098216
0.000981667
0.000981194
0.000980739
0.000980304
0.000979888
0.000979491
0.000979112
0.000978752
0.000978411
0.000978089
0.000977786
0.000977501
0.000977235
0.000976987
0.000976758
0.000976547
0.000976355
0.000976181
0.000976025
0.000975888
0.000975769
0.000975668
0.000975585
0.00097552
0.000975472
0.000975442
0.000975429
0.000975434
0.000975456
0.000975496
0.000975552
0.000975625
0.000975714
0.00097582
0.000975942
0.000976081
0.000976235
0.000976406
0.000976593
0.000976795
0.000977014
0.000977249
0.0009775
0.000977766
0.000978049
0.000978346
0.000978662
0.000978994
0.000979343
0.000979709
0.000980092
0.000980493
0.000980912
0.000981349
0.000981805
0.000982279
0.000982774
0.00098329
0.000983827
0.000984385
0.000984965
0.000985568
0.000986196
0.000986848
0.000987525
0.000988228
0.000988959
0.000989718
0.000990505
0.000991323
0.000992174
0.000993056
0.000993968
0.000994915
0.000995896
0.000996911
0.000997962
0.000999051
0.00100018
0.00100134
0.00100254
0.00100378
0.00100507
0.00100639
0.00100775
0.00100916
0.00101061
0.0010121
0.00101364
0.00101521
0.00101683
0.0010185
0.0010202
0.00102195
0.00102375
0.00102558
0.00102746
0.00102938
0.00103135
0.00103335
0.0010354
0.00103749
0.00103962
0.00104179
0.001044
0.00104626
0.00104855
0.00105088
0.00105325
0.00105566
0.00105811
0.00106059
0.0010631
0.00106565
0.00106824
0.00107085
0.0010735
0.00107618
0.00107889
0.00108164
0.00108441
0.00108722
0.00109005
0.00109291
0.0010958
0.00109872
0.00110167
0.00110464
0.00110763
0.00111065
0.0011137
0.00111677
0.00111986
0.00112298
0.00112612
0.00112928
0.00113246
0.00113566
0.00113888
0.00114212
0.00114538
0.00114865
0.00115194
0.00115525
0.00115857
0.00116191
0.00116526
0.00116863
0.00117201
0.0011754
0.00117881
0.00118223
0.00118565
0.00118909
0.00119254
0.001196
0.00119947
0.00120295
0.00120643
0.00120993
0.00121343
0.00121694
0.00122045
0.00122398
0.00122751
0.00123104
0.00123459
0.00123813
0.00124169
0.00124525
0.00124882
0.00125239
0.00125596
0.00125955
0.00126314
0.00126673
0.00127033
0.00127394
0.00127756
0.00128118
0.00128481
0.00128846
0.00129211
0.00129577
0.00129945
0.00130337
0.00130739
0.00131117
0.00131474
0.00131808
0.00132122
0.00132417
0.00132695
0.00132956
0.00133201
0.00133432
0.00133649
0.00133853
0.00134045
0.00134226
0.00134395
0.00134555
0.00134705
0.00134847
0.0013498
0.00135105
0.00135222
0.00135334
0.00135438
0.00135536
0.00135628
0.00135715
0.00135796
0.00135873
0.00135945
0.00136014
0.00136077
0.0013614
0.00136189
0.0013628
7.88099e-05
0.000128148
0.000368157
0.000753549
0.00120254
0.00162696
0.00196328
0.00217478
0.00228406
0.00227027
0.00221543
0.00212528
0.00201608
0.00190284
0.00179605
0.0017017
0.00162147
0.00155535
0.00150256
0.001462
0.00143134
0.00140969
0.00139402
0.0013819
0.00137164
0.00136183
0.00135136
0.00133935
0.00132552
0.00131003
0.00129309
0.00127532
0.00125705
0.0012389
0.00122073
0.00120455
0.00119064
0.00117788
0.00116631
0.0011557
0.00114621
0.00113739
0.0011294
0.00112217
0.0011156
0.00110964
0.00110422
0.00109929
0.00109479
0.00109068
0.00108691
0.00108344
0.00108024
0.00107727
0.0010745
0.00107189
0.0010694
0.00106701
0.0010647
0.00106243
0.00106018
0.00105795
0.00105572
0.00105349
0.00105126
0.00104904
0.00104681
0.0010446
0.00104239
0.0010402
0.00103802
0.00103585
0.00103371
0.00103159
0.0010295
0.00102744
0.0010254
0.00102339
0.00102142
0.00101948
0.00101757
0.0010157
0.00101386
0.00101206
0.00101029
0.00100856
0.00100686
0.0010052
0.00100357
0.00100198
0.00100042
0.000998899
0.000997408
0.000995952
0.00099453
0.00099314
0.000991781
0.000990454
0.00098916
0.000987895
0.000986661
0.000985457
0.000984281
0.000983136
0.000982017
0.000980928
0.000979866
0.000978832
0.000977823
0.000976843
0.000975887
0.000974958
0.000974054
0.000973174
0.00097232
0.000971489
0.000970681
0.000969898
0.000969137
0.000968398
0.000967682
0.000966989
0.000966316
0.000965663
0.000965033
0.000964423
0.000963833
0.000963263
0.000962712
0.000962181
0.000961671
0.00096118
0.000960708
0.000960256
0.000959822
0.000959408
0.000959012
0.000958636
0.000958279
0.00095794
0.000957621
0.000957321
0.00095704
0.000956778
0.000956534
0.000956309
0.000956103
0.000955914
0.000955745
0.000955593
0.00095546
0.000955345
0.000955247
0.000955168
0.000955105
0.000955061
0.000955033
0.000955023
0.00095503
0.000955054
0.000955096
0.000955154
0.000955228
0.000955319
0.000955426
0.000955549
0.00095569
0.000955845
0.000956018
0.000956205
0.000956409
0.00095663
0.000956866
0.000957118
0.000957387
0.000957671
0.000957971
0.000958288
0.000958623
0.000958976
0.000959346
0.000959732
0.000960135
0.000960558
0.000961
0.000961461
0.000961941
0.000962441
0.000962961
0.000963505
0.00096407
0.000964657
0.000965268
0.000965904
0.000966565
0.000967252
0.000967964
0.000968706
0.000969477
0.000970277
0.000971107
0.00097197
0.000972865
0.00097379
0.000974751
0.000975746
0.000976776
0.000977842
0.000978945
0.000980086
0.000981264
0.000982483
0.000983739
0.000985035
0.000986373
0.00098775
0.00098917
0.000990633
0.000992137
0.000993685
0.000995273
0.000996905
0.000998577
0.00100029
0.00100205
0.00100385
0.00100569
0.00100757
0.00100949
0.00101146
0.00101346
0.0010155
0.00101759
0.00101971
0.00102188
0.00102408
0.00102633
0.00102861
0.00103092
0.00103327
0.00103566
0.00103808
0.00104053
0.00104302
0.00104554
0.0010481
0.00105068
0.0010533
0.00105594
0.00105862
0.00106133
0.00106407
0.00106684
0.00106963
0.00107245
0.0010753
0.00107817
0.00108107
0.00108399
0.00108693
0.00108991
0.0010929
0.00109591
0.00109895
0.00110201
0.00110509
0.00110819
0.00111131
0.00111444
0.00111759
0.00112076
0.00112395
0.00112715
0.00113037
0.0011336
0.00113685
0.00114011
0.00114339
0.00114668
0.00114997
0.00115328
0.00115661
0.00115994
0.00116328
0.00116663
0.00116999
0.00117336
0.00117674
0.00118013
0.00118352
0.00118692
0.00119033
0.00119375
0.00119717
0.0012006
0.00120403
0.00120746
0.00121091
0.00121436
0.00121782
0.00122128
0.00122474
0.00122821
0.00123169
0.00123517
0.00123866
0.00124215
0.00124565
0.00124916
0.00125267
0.00125619
0.00125972
0.00126326
0.00126682
0.00127038
0.00127417
0.00127808
0.00128175
0.0012852
0.00128843
0.00129148
0.00129434
0.00129703
0.00129956
0.00130194
0.00130417
0.00130627
0.00130825
0.00131011
0.00131186
0.00131351
0.00131505
0.00131651
0.00131788
0.00131917
0.00132039
0.00132153
0.0013226
0.00132361
0.00132456
0.00132546
0.0013263
0.00132709
0.00132784
0.00132854
0.0013292
0.00132981
0.00133042
0.00133089
0.00133178
7.87934e-05
0.000127812
0.000367964
0.000754128
0.00120452
0.00163076
0.0019683
0.00218072
0.00229004
0.00227612
0.00222101
0.00213096
0.00202307
0.00191324
0.00181076
0.00172098
0.00164548
0.00158347
0.00153311
0.0014926
0.00145977
0.00143302
0.00141054
0.00139108
0.00137319
0.00135596
0.00133822
0.00131987
0.00130007
0.00127911
0.00125751
0.00123604
0.00121495
0.00119472
0.00117513
0.00115812
0.00114378
0.00113079
0.00111905
0.00110851
0.00109893
0.0010902
0.00108233
0.00107523
0.00106881
0.001063
0.00105775
0.00105299
0.00104867
0.00104476
0.00104119
0.00103794
0.00103496
0.00103223
0.0010297
0.00102733
0.0010251
0.00102296
0.00102089
0.00101887
0.00101687
0.00101489
0.0010129
0.00101092
0.00100893
0.00100694
0.00100494
0.00100293
0.00100093
0.000998933
0.000996941
0.000994958
0.000992989
0.000991034
0.000989098
0.000987182
0.000985287
0.000983418
0.000981574
0.000979756
0.000977966
0.000976205
0.000974474
0.000972772
0.0009711
0.000969459
0.000967849
0.00096627
0.000964721
0.000963204
0.000961717
0.000960261
0.000958836
0.00095744
0.000956075
0.000954741
0.000953435
0.000952158
0.00095091
0.000949692
0.0009485
0.000947336
0.0009462
0.000945089
0.000944006
0.000942948
0.000941917
0.000940909
0.000939928
0.00093897
0.000938038
0.000937128
0.000936241
0.000935378
0.000934536
0.000933718
0.000932921
0.000932145
0.000931391
0.000930658
0.000929945
0.000929253
0.000928582
0.00092793
0.000927298
0.000926686
0.000926094
0.000925522
0.000924969
0.000924435
0.00092392
0.000923425
0.00092295
0.000922494
0.000922057
0.000921639
0.000921239
0.000920859
0.000920498
0.000920155
0.000919831
0.000919526
0.00091924
0.000918972
0.000918722
0.00091849
0.000918277
0.000918082
0.000917905
0.000917745
0.000917604
0.000917479
0.000917373
0.000917283
0.000917211
0.000917156
0.000917118
0.000917098
0.000917093
0.000917107
0.000917136
0.000917183
0.000917246
0.000917324
0.000917419
0.000917531
0.000917658
0.0009178
0.00091796
0.000918135
0.000918325
0.000918531
0.000918754
0.000918992
0.000919246
0.000919515
0.0009198
0.000920101
0.00092042
0.000920757