/*--------------------------------*- C++ -*----------------------------------*\
| =========                 |                                                 |
| \\      /  F ield         | OpenFOAM: The Open Source CFD Toolbox           |
|  \\    /   O peration     | Version:  2.4.0                                 |
|   \\  /    A nd           | Web:      www.OpenFOAM.org                      |
|    \\/     M anipulation  |                                                 |
\*---------------------------------------------------------------------------*/
FoamFile
{
    version     2.0;
    format      ascii;
    class       volScalarField;
    location    "15000/fluid";
    object      omega;
}
// * * * * * * * * * * * * * * * * * * * * * * * * * * * * * * * * * * * * * //

dimensions      [0 0 -1 0 0 0 0];

internalField   nonuniform List<scalar> 
105000
(
86744.7
110303
185616
264759
333829
387769
425428
447294
457792
456036
450152
440600
428913
416509
404495
393554
384052
375926
369473
364157
360612
358286
356945
356239
356270
356446
356770
357053
357318
357533
357770
358075
358520
359086
359739
360364
360943
361509
362055
362595
363129
363657
364182
364714
365253
365803
366370
366955
367559
368186
368838
369517
370224
370962
371730
372529
373355
374208
375085
375982
376898
377832
378782
379749
380732
381732
382748
383779
384827
385892
386973
388070
389185
390316
391465
392631
393814
395015
396233
397470
398724
399996
401287
402595
403922
405268
406632
408014
409416
410836
412275
413734
415211
416709
418225
419761
421317
422892
424487
426102
427737
429392
431067
432762
434478
436214
437970
439747
441544
443362
445200
447059
448939
450839
452759
454701
456663
458645
460648
462672
464716
466780
468864
470969
473094
475238
477402
479586
481790
484013
486255
488518
490800
493102
495422
497763
500123
502502
504902
507322
509762
512222
514703
517205
519728
522272
524838
527426
530036
532668
535322
537999
540699
543421
546166
548934
551725
554538
557375
560233
563115
566019
568946
571895
574867
577861
580878
583917
586978
590061
593167
596296
599447
602620
605817
609035
612277
615542
618830
622142
625477
628836
632218
635625
639055
642510
645990
649495
653024
656578
660158
663765
667397
671055
674740
678452
682191
685957
689751
693575
697426
701306
705216
709154
713121
717119
721147
725204
729293
733413
737563
741746
745959
750205
754483
758792
763134
767510
771918
776360
780833
785341
789880
794453
799058
803696
808368
813071
817809
822578
827381
832216
837084
841984
846919
851886
856886
861917
866979
872074
877199
882357
887544
892764
898014
903294
908606
913946
919318
924718
930149
935609
941095
946612
952155
957726
963327
968954
974610
980294
986003
991743
997509
1.0033e+06
1.00912e+06
1.01497e+06
1.02085e+06
1.02675e+06
1.03267e+06
1.03862e+06
1.0446e+06
1.0506e+06
1.05662e+06
1.06267e+06
1.06875e+06
1.07485e+06
1.08097e+06
1.08712e+06
1.09329e+06
1.09949e+06
1.10571e+06
1.11195e+06
1.11822e+06
1.1245e+06
1.13081e+06
1.13714e+06
1.1435e+06
1.14987e+06
1.15627e+06
1.16269e+06
1.16914e+06
1.1756e+06
1.18208e+06
1.18859e+06
1.19511e+06
1.20166e+06
1.20822e+06
1.21481e+06
1.22142e+06
1.22805e+06
1.23469e+06
1.24136e+06
1.24805e+06
1.25475e+06
1.26148e+06
1.26823e+06
1.27499e+06
1.28177e+06
1.28858e+06
1.2954e+06
1.30224e+06
1.3091e+06
1.31597e+06
1.32287e+06
1.32978e+06
1.33714e+06
1.34469e+06
1.35177e+06
1.35841e+06
1.36463e+06
1.37045e+06
1.3759e+06
1.381e+06
1.38577e+06
1.39024e+06
1.39443e+06
1.39835e+06
1.40201e+06
1.40544e+06
1.40865e+06
1.41165e+06
1.41446e+06
1.41708e+06
1.41954e+06
1.42184e+06
1.42399e+06
1.426e+06
1.42788e+06
1.42964e+06
1.43129e+06
1.43283e+06
1.43427e+06
1.43562e+06
1.43688e+06
1.43806e+06
1.43917e+06
1.44019e+06
1.44119e+06
1.44199e+06
1.44331e+06
86745.1
110300
185625
264788
333882
387846
425529
447413
457934
456184
450306
440761
429074
416674
404654
393717
384204
376086
369622
364310
360766
358441
357088
356388
356417
356596
356920
357208
357468
357681
357911
358189
358598
359092
359647
360173
360651
361114
361562
362013
362471
362935
363409
363902
364414
364946
365503
366085
366693
367328
367992
368684
369407
370162
370949
371766
372611
373481
374374
375288
376220
377169
378134
379115
380111
381123
382151
383194
384252
385326
386416
387522
388644
389783
390939
392111
393301
394508
395732
396974
398233
399510
400805
402119
403450
404799
406168
407554
408959
410383
411826
413288
414770
416270
417789
419329
420888
422466
424064
425682
427319
428977
430655
432352
434070
435809
437567
439347
441146
442966
444806
446667
448548
450450
452373
454315
456279
458263
460267
462291
464336
466401
468485
470590
472715
474859
477023
479207
481410
483632
485874
488136
490417
492718
495037
497377
499736
502115
504513
506932
509371
511831
514311
516812
519334
521878
524444
527031
529640
532272
534926
537602
540301
543022
545766
548533
551322
554135
556969
559826
562706
565608
568533
571480
574449
577440
580453
583489
586547
589627
592729
595854
599001
602170
605362
608576
611814
615074
618357
621664
624995
628348
631726
635127
638552
642001
645475
648973
652496
656044
659618
663218
666843
670494
674172
677876
681607
685366
689152
692967
696810
700682
704582
708511
712470
716458
720477
724525
728604
732713
736853
741026
745229
749464
753730
758028
762360
766723
771120
775550
780011
784507
789033
793594
798186
802811
807469
812159
816883
821639
826427
831248
836101
840987
845906
850859
855843
860858
865904
870983
876093
881233
886404
891607
896840
902102
907397
912719
918072
923455
928866
934307
939775
945272
950796
956348
961929
967536
973172
978835
984525
990243
995989
1.00176e+06
1.00756e+06
1.01339e+06
1.01924e+06
1.02512e+06
1.03102e+06
1.03695e+06
1.0429e+06
1.04888e+06
1.05488e+06
1.06091e+06
1.06697e+06
1.07304e+06
1.07914e+06
1.08527e+06
1.09142e+06
1.09759e+06
1.10379e+06
1.11e+06
1.11624e+06
1.12251e+06
1.12879e+06
1.1351e+06
1.14143e+06
1.14778e+06
1.15416e+06
1.16055e+06
1.16697e+06
1.17341e+06
1.17987e+06
1.18635e+06
1.19285e+06
1.19937e+06
1.20591e+06
1.21247e+06
1.21905e+06
1.22565e+06
1.23228e+06
1.23892e+06
1.24558e+06
1.25226e+06
1.25896e+06
1.26568e+06
1.27242e+06
1.27917e+06
1.28595e+06
1.29274e+06
1.29956e+06
1.30639e+06
1.31324e+06
1.32011e+06
1.327e+06
1.33433e+06
1.34185e+06
1.34891e+06
1.35551e+06
1.36171e+06
1.3675e+06
1.37293e+06
1.37801e+06
1.38277e+06
1.38722e+06
1.39139e+06
1.39529e+06
1.39894e+06
1.40236e+06
1.40555e+06
1.40854e+06
1.41134e+06
1.41396e+06
1.41641e+06
1.4187e+06
1.42084e+06
1.42284e+06
1.42472e+06
1.42647e+06
1.42811e+06
1.42964e+06
1.43108e+06
1.43242e+06
1.43368e+06
1.43485e+06
1.43595e+06
1.43697e+06
1.43797e+06
1.43876e+06
1.44008e+06
86745.9
110293
185644
264851
333993
388005
425738
447655
458219
456480
450613
441077
429390
416992
404961
394027
384492
376384
369900
364585
361039
358722
357347
356673
356686
356873
357179
357464
357702
357891
358067
358269
358563
358897
359249
359557
359835
360111
360391
360693
361023
361383
361776
362208
362676
363181
363725
364305
364920
365571
366257
366976
367729
368516
369336
370187
371064
371968
372894
373839
374802
375781
376774
377782
378804
379841
380891
381955
383033
384126
385234
386356
387494
388648
389817
391003
392205
393424
394659
395912
397181
398468
399773
401095
402435
403793
405169
406564
407977
409408
410859
412328
413816
415323
416849
418395
419959
421544
423148
424771
426415
428078
429761
431463
433187
434930
436693
438477
440280
442105
443949
445813
447698
449603
451529
453474
455440
457426
459432
461458
463504
465570
467655
469760
471885
474028
476192
478375
480577
482798
485038
487298
489577
491875
494193
496530
498887
501264
503661
506078
508515
510973
513452
515952
518473
521016
523580
526166
528774
531405
534057
536732
539429
542148
544889
547653
550439
553248
556079
558932
561807
564704
567623
570564
573527
576511
579518
582546
585597
588669
591763
594880
598018
601178
604361
607566
610794
614044
617316
620613
623933
627275
630641
634030
637443
640880
644341
647826
651336
654870
658430
662014
665624
669260
672923
676611
680325
684067
687836
691633
695459
699312
703194
707103
711043
715011
719009
723037
727095
731182
735301
739451
743631
747843
752087
756361
760669
765007
769380
773784
778221
782689
787189
791723
796288
800886
805515
810178
814872
819599
824358
829149
833971
838826
843713
848634
853586
858569
863582
868627
873703
878809
883946
889113
894310
899536
904794
910080
915394
920739
926111
931514
936943
942399
947885
953395
958936
964503
970096
975719
981368
987042
992745
998475
1.00423e+06
1.01002e+06
1.01582e+06
1.02166e+06
1.02752e+06
1.0334e+06
1.03931e+06
1.04524e+06
1.0512e+06
1.05718e+06
1.06318e+06
1.06921e+06
1.07527e+06
1.08135e+06
1.08745e+06
1.09357e+06
1.09972e+06
1.10589e+06
1.11208e+06
1.11829e+06
1.12453e+06
1.13079e+06
1.13707e+06
1.14337e+06
1.1497e+06
1.15604e+06
1.16241e+06
1.1688e+06
1.1752e+06
1.18163e+06
1.18808e+06
1.19455e+06
1.20104e+06
1.20755e+06
1.21408e+06
1.22063e+06
1.2272e+06
1.23379e+06
1.2404e+06
1.24703e+06
1.25367e+06
1.26034e+06
1.26702e+06
1.27373e+06
1.28045e+06
1.28719e+06
1.29395e+06
1.30073e+06
1.30753e+06
1.31434e+06
1.32117e+06
1.32845e+06
1.33591e+06
1.34291e+06
1.34946e+06
1.35561e+06
1.36136e+06
1.36674e+06
1.37178e+06
1.3765e+06
1.38092e+06
1.38505e+06
1.38892e+06
1.39254e+06
1.39593e+06
1.3991e+06
1.40207e+06
1.40484e+06
1.40744e+06
1.40986e+06
1.41214e+06
1.41426e+06
1.41625e+06
1.41811e+06
1.41985e+06
1.42147e+06
1.423e+06
1.42442e+06
1.42575e+06
1.427e+06
1.42816e+06
1.42925e+06
1.43026e+06
1.43125e+06
1.43204e+06
1.43334e+06
86747.2
110281
185676
264951
334169
388256
426064
448031
458660
456935
451088
441562
429883
417480
405442
394497
384949
376828
370338
364979
361435
359229
357819
357167
357095
357265
357513
357735
357884
357980
358021
358042
358089
358140
358170
358168
358181
358222
358302
358434
358625
358875
359183
359553
359979
360460
360994
361577
362206
362880
363595
364350
365143
365974
366839
367736
368660
369610
370582
371572
372578
373598
374632
375678
376736
377806
378889
379983
381090
382210
383343
384489
385650
386825
388014
389219
390439
391675
392927
394196
395480
396782
398100
399436
400789
402159
403548
404954
406378
407821
409282
410761
412260
413776
415312
416867
418441
420034
421647
423279
424931
426602
428292
430003
431733
433483
435253
437043
438852
440682
442532
444401
446290
448200
450129
452078
454047
456035
458042
460070
462117
464183
466268
468372
470496
472638
474800
476980
479179
481398
483635
485892
488168
490463
492778
495112
497465
499839
502233
504647
507082
509538
512014
514512
517030
519571
522132
524716
527321
529948
532597
535267
537960
540674
543410
546168
548948
551749
554572
557417
560282
563169
566078
569008
571960
574933
577927
580943
583980
587038
590118
593220
596343
599488
602655
605843
609054
612286
615542
618820
622121
625444
628790
632159
635551
638967
642405
645868
649355
652866
656401
659960
663545
667155
670791
674451
678138
681852
685591
689359
693154
696977
700826
704704
708611
712546
716510
720503
724526
728578
732661
736774
740917
745091
749295
753532
757799
762098
766430
770792
775187
779613
784070
788559
793080
797633
802217
806833
811481
816160
820871
825613
830386
835192
840029
844898
849798
854729
859689
864680
869702
874752
879833
884944
890084
895254
900451
905679
910932
916217
921529
926869
932237
937631
943053
948502
953977
959481
965010
970566
976149
981757
987393
993057
998745
1.00446e+06
1.0102e+06
1.01596e+06
1.02175e+06
1.02756e+06
1.0334e+06
1.03926e+06
1.04515e+06
1.05106e+06
1.05699e+06
1.06295e+06
1.06893e+06
1.07493e+06
1.08096e+06
1.08701e+06
1.09308e+06
1.09918e+06
1.10529e+06
1.11143e+06
1.11759e+06
1.12377e+06
1.12997e+06
1.1362e+06
1.14245e+06
1.14871e+06
1.155e+06
1.16131e+06
1.16764e+06
1.17399e+06
1.18036e+06
1.18675e+06
1.19316e+06
1.19959e+06
1.20604e+06
1.21251e+06
1.21899e+06
1.2255e+06
1.23203e+06
1.23857e+06
1.24514e+06
1.25172e+06
1.25832e+06
1.26494e+06
1.27158e+06
1.27824e+06
1.28492e+06
1.29161e+06
1.29832e+06
1.30505e+06
1.3118e+06
1.31898e+06
1.32635e+06
1.33326e+06
1.33973e+06
1.3458e+06
1.35148e+06
1.35679e+06
1.36177e+06
1.36643e+06
1.37079e+06
1.37487e+06
1.37869e+06
1.38227e+06
1.38561e+06
1.38874e+06
1.39167e+06
1.3944e+06
1.39697e+06
1.39936e+06
1.40161e+06
1.4037e+06
1.40566e+06
1.4075e+06
1.40922e+06
1.41082e+06
1.41232e+06
1.41373e+06
1.41504e+06
1.41627e+06
1.41742e+06
1.4185e+06
1.4195e+06
1.42047e+06
1.42125e+06
1.42254e+06
86749
110261
185723
265097
334423
388619
426532
448571
459287
457583
451760
442246
430572
418160
406120
395151
385594
377458
370934
365601
362020
359692
358305
357644
357476
357560
357677
357746
357688
357543
357287
356973
356631
356270
355890
355545
355283
355094
354985
354987
355056
355214
355456
355781
356179
356647
357182
357778
358431
359136
359889
360688
361530
362411
363331
364283
365263
366269
367295
368339
369398
370469
371551
372644
373746
374859
375981
377113
378256
379409
380574
381751
382940
384142
385357
386587
387830
389088
390362
391650
392955
394275
395611
396964
398334
399721
401125
402547
403986
405443
406918
408411
409922
411452
413000
414567
416153
417757
419381
421023
422685
424366
426065
427785
429524
431282
433059
434857
436673
438509
440364
442239
444133
446046
447978
449929
451900
453889
455897
457924
459970
462034
464117
466219
468339
470478
472635
474811
477005
479219
481451
483703
485973
488263
490573
492902
495251
497620
500010
502419
504850
507301
509773
512265
514779
517314
519870
522447
525045
527664
530305
532966
535649
538352
541077
543822
546588
549375
552183
555012
557861
560731
563622
566533
569465
572417
575391
578385
581400
584435
587492
590569
593668
596787
599928
603090
606273
609478
612704
615952
619223
622515
625829
629165
632523
635904
639308
642735
646185
649657
653154
656675
660219
663788
667381
670999
674643
678311
682005
685727
689475
693249
697051
700880
704735
708619
712532
716472
720441
724440
728467
732524
736611
740727
744873
749050
753257
757496
761765
766066
770398
774759
779153
783576
788031
792516
797033
801580
806158
810766
815406
820076
824777
829507
834270
839063
843888
848740
853624
858535
863477
868447
873446
878475
883531
888617
893728
898869
904037
909233
914458
919709
924987
930292
935622
940980
946364
951774
957211
962671
968160
973674
979213
984779
990371
995986
1.00163e+06
1.00729e+06
1.01298e+06
1.01869e+06
1.02443e+06
1.03019e+06
1.03597e+06
1.04178e+06
1.0476e+06
1.05346e+06
1.05933e+06
1.06523e+06
1.07115e+06
1.0771e+06
1.08306e+06
1.08905e+06
1.09506e+06
1.10109e+06
1.10714e+06
1.11321e+06
1.1193e+06
1.12542e+06
1.13155e+06
1.13771e+06
1.14388e+06
1.15008e+06
1.1563e+06
1.16253e+06
1.16879e+06
1.17506e+06
1.18136e+06
1.18767e+06
1.19401e+06
1.20036e+06
1.20673e+06
1.21312e+06
1.21953e+06
1.22596e+06
1.23241e+06
1.23887e+06
1.24536e+06
1.25186e+06
1.25838e+06
1.26492e+06
1.27147e+06
1.27804e+06
1.28463e+06
1.29124e+06
1.29786e+06
1.30492e+06
1.31215e+06
1.31894e+06
1.32529e+06
1.33125e+06
1.33682e+06
1.34204e+06
1.34693e+06
1.3515e+06
1.35578e+06
1.35979e+06
1.36354e+06
1.36705e+06
1.37033e+06
1.3734e+06
1.37627e+06
1.37896e+06
1.38147e+06
1.38382e+06
1.38602e+06
1.38808e+06
1.39e+06
1.39181e+06
1.39349e+06
1.39506e+06
1.39654e+06
1.39792e+06
1.3992e+06
1.40041e+06
1.40154e+06
1.4026e+06
1.40358e+06
1.40453e+06
1.40529e+06
1.40656e+06
86751.4
110228
185788
265306
334783
389134
427190
449338
460184
458522
452739
443267
431596
419204
407133
396169
386587
378464
371959
366665
363077
360702
359171
358305
357861
357625
357396
357086
356612
356006
355256
354442
353593
352771
351992
351339
350857
350496
350266
350154
350175
350280
350489
350797
351192
351669
352222
352844
353529
354274
355072
355921
356816
357755
358733
359746
360788
361856
362944
364048
365166
366294
367432
368577
369730
370890
372058
373233
374417
375609
376811
378023
379245
380479
381724
382982
384253
385537
386835
388148
389475
390817
392175
393549
394938
396344
397767
399206
400662
402135
403626
405135
406661
408205
409767
411347
412946
414562
416197
417851
419523
421214
422923
424651
426398
428164
429948
431751
433572
435412
437271
439147
441043
442956
444888
446838
448806
450792
452796
454819
456859
458917
460993
463088
465200
467331
469480
471647
473833
476038
478261
480504
482767
485048
487349
489669
492009
494369
496749
499149
501569
504010
506470
508951
511452
513973
516514
519076
521657
524259
526880
529521
532182
534863
537564
540285
543025
545785
548565
551365
554185
557024
559883
562761
565659
568578
571515
574473
577451
580448
583466
586503
589561
592638
595736
598853
601992
605150
608330
611530
614751
617992
621255
624539
627843
631169
634517
637887
641278
644692
648127
651586
655068
658573
662101
665652
669228
672829
676453
680104
683781
687483
691210
694964
698744
702551
706385
710247
714136
718053
721999
725973
729975
734007
738067
742157
746276
750425
754605
758814
763053
767322
771620
775949
780307
784695
789113
793561
798038
802545
807081
811648
816243
820868
825523
830209
834922
839666
844437
849237
854064
858920
863803
868714
873652
878616
883609
888627
893673
898746
903846
908974
914126
919304
924509
929738
934993
940273
945578
950909
956264
961644
967050
972479
977935
983414
988916
994442
999992
1.00556e+06
1.01116e+06
1.01678e+06
1.02241e+06
1.02808e+06
1.03376e+06
1.03947e+06
1.0452e+06
1.05096e+06
1.05673e+06
1.06253e+06
1.06834e+06
1.07418e+06
1.08004e+06
1.08592e+06
1.09181e+06
1.09773e+06
1.10368e+06
1.10964e+06
1.11562e+06
1.12162e+06
1.12764e+06
1.13368e+06
1.13974e+06
1.14582e+06
1.15192e+06
1.15804e+06
1.16417e+06
1.17033e+06
1.1765e+06
1.1827e+06
1.18891e+06
1.19514e+06
1.20138e+06
1.20765e+06
1.21393e+06
1.22023e+06
1.22655e+06
1.23289e+06
1.23924e+06
1.24561e+06
1.252e+06
1.25841e+06
1.26483e+06
1.27127e+06
1.27772e+06
1.28459e+06
1.29164e+06
1.29825e+06
1.30445e+06
1.31025e+06
1.31568e+06
1.32076e+06
1.32552e+06
1.32997e+06
1.33414e+06
1.33804e+06
1.3417e+06
1.34511e+06
1.34831e+06
1.3513e+06
1.35409e+06
1.35671e+06
1.35916e+06
1.36144e+06
1.36359e+06
1.36559e+06
1.36746e+06
1.36921e+06
1.37085e+06
1.37239e+06
1.37382e+06
1.37516e+06
1.37641e+06
1.37759e+06
1.37868e+06
1.37971e+06
1.38067e+06
1.38159e+06
1.38234e+06
1.38356e+06
86755
110182
185884
265595
335285
389839
428093
450373
461349
459700
453930
444425
432729
420289
408238
397275
387727
379695
373153
368064
364147
361460
359530
358121
357025
356075
355119
354060
352871
351580
350196
348813
347485
346272
345199
344350
343747
343309
343033
342893
342910
343017
343240
343572
343997
344508
345100
345766
346499
347294
348146
349050
350005
351005
352048
353126
354235
355370
356526
357698
358881
360073
361270
362474
363683
364897
366115
367340
368570
369807
371051
372303
373565
374835
376116
377408
378711
380027
381355
382697
384051
385421
386804
388202
389616
391044
392489
393949
395426
396919
398428
399955
401498
403058
404635
406230
407842
409471
411118
412783
414465
416164
417881
419615
421367
423137
424923
426728
428549
430388
432244
434117
436007
437914
439839
441780
443739
445715
447708
449718
451746
453791
455853
457933
460031
462147
464281
466433
468603
470792
472999
475225
477470
479734
482016
484317
486637
488975
491333
493709
496104
498518
500951
503403
505873
508362
510869
513395
515939
518502
521083
523683
526301
528937
531592
534265
536957
539667
542396
545143
547908
550692
553494
556315
559154
562012
564888
567782
570696
573627
576577
579546
582533
585540
588564
591607
594669
597750
600851
603971
607110
610268
613445
616642
619859
623095
626352
629628
632926
636244
639583
642943
646324
649728
653153
656601
660071
663564
667082
670623
674188
677778
681392
685031
688695
692385
696100
699841
703609
707404
711225
715074
718949
722852
726784
730743
734730
738746
742791
746865
750967
755097
759256
763443
767659
771902
776175
780475
784805
789162
793547
797961
802403
806871
811371
815897
820453
825034
829643
834278
838941
843629
848343
853085
857851
862644
867463
872307
877177
882074
886998
891945
896919
901916
906938
911985
917055
922150
927268
932409
937576
942766
947978
953217
958479
963763
969071
974399
979750
985123
990517
995934
1.00137e+06
1.00683e+06
1.01231e+06
1.01782e+06
1.02334e+06
1.02889e+06
1.03445e+06
1.04004e+06
1.04565e+06
1.05127e+06
1.05692e+06
1.06258e+06
1.06827e+06
1.07398e+06
1.0797e+06
1.08545e+06
1.09121e+06
1.09699e+06
1.1028e+06
1.10862e+06
1.11446e+06
1.12032e+06
1.12619e+06
1.13209e+06
1.138e+06
1.14393e+06
1.14988e+06
1.15585e+06
1.16183e+06
1.16784e+06
1.17385e+06
1.17989e+06
1.18594e+06
1.19201e+06
1.1981e+06
1.2042e+06
1.21033e+06
1.21646e+06
1.22262e+06
1.22878e+06
1.23497e+06
1.24117e+06
1.24739e+06
1.254e+06
1.26079e+06
1.26715e+06
1.27312e+06
1.2787e+06
1.28393e+06
1.28882e+06
1.2934e+06
1.29769e+06
1.3017e+06
1.30545e+06
1.30896e+06
1.31225e+06
1.31532e+06
1.3182e+06
1.32089e+06
1.3234e+06
1.32576e+06
1.32796e+06
1.33001e+06
1.33194e+06
1.33374e+06
1.33542e+06
1.337e+06
1.33847e+06
1.33985e+06
1.34114e+06
1.34234e+06
1.34347e+06
1.34452e+06
1.34551e+06
1.34643e+06
1.34732e+06
1.34803e+06
1.34921e+06
86758
110122
186027
266010
335964
390782
429122
451515
462290
460518
454496
444720
432780
420259
408182
397219
387696
379635
372896
367349
362756
359001
355872
353258
350970
348916
346933
345015
343058
341086
339148
337345
335721
334312
333142
332271
331691
331298
331073
331013
331083
331267
331568
331976
332476
333061
333727
334466
335271
336138
337063
338040
339069
340144
341261
342414
343597
344806
346034
347277
348530
349790
351056
352325
353597
354872
356150
357432
358717
360006
361301
362603
363911
365227
366551
367885
369228
370583
371948
373325
374714
376116
377531
378959
380400
381856
383326
384810
386309
387823
389352
390896
392455
394030
395620
397225
398846
400483
402135
403802
405485
407184
408897
410627
412372
414132
415908
417699
419505
421327
423165
425018
426887
428771
430671
432587
434519
436467
438431
440412
442408
444421
446451
448497
450560
452639
454736
456849
458978
461125
463288
465468
467665
469879
472109
474356
476620
478900
481197
483510
485840
488186
490549
492928
495324
497736
500164
502609
505070
507547
510041
512551
515078
517621
520180
522756
525349
527958
530583
533225
535883
538558
541249
543957
546681
549421
552178
554951
557741
560547
563370
566209
569065
571937
574826
577732
580654
583593
586550
589524
592515
595523
598548
601591
604652
607731
610828
613944
617077
620230
623402
626594
629805
633035
636287
639559
642851
646165
649501
652860
656241
659644
663070
666520
669993
673489
677010
680555
684125
687720
691339
694984
698655
702351
706073
709822
713597
717399
721229
725085
728968
732876
736812
740774
744763
748778
752820
756889
760983
765104
769251
773425
777623
781849
786100
790379
794683
799013
803367
807747
812152
816581
821036
825513
830017
834544
839096
843671
848271
852896
857545
862220
866916
871635
876378
881141
885929
890739
895570
900425
905301
910199
915120
920063
925030
930018
935026
940055
945105
950173
955264
960375
965505
970656
975827
981017
986231
991463
996714
1.00198e+06
1.00727e+06
1.01258e+06
1.01791e+06
1.02325e+06
1.02861e+06
1.03399e+06
1.03939e+06
1.04481e+06
1.05025e+06
1.05571e+06
1.06118e+06
1.06667e+06
1.07218e+06
1.0777e+06
1.08324e+06
1.0888e+06
1.09437e+06
1.09997e+06
1.10558e+06
1.1112e+06
1.11685e+06
1.12251e+06
1.12818e+06
1.13387e+06
1.13958e+06
1.1453e+06
1.15104e+06
1.15679e+06
1.16256e+06
1.16835e+06
1.17415e+06
1.17996e+06
1.18579e+06
1.19163e+06
1.19749e+06
1.20372e+06
1.21011e+06
1.21611e+06
1.22172e+06
1.22698e+06
1.2319e+06
1.23651e+06
1.24082e+06
1.24485e+06
1.24863e+06
1.25216e+06
1.25546e+06
1.25855e+06
1.26144e+06
1.26414e+06
1.26667e+06
1.26903e+06
1.27124e+06
1.27331e+06
1.27524e+06
1.27705e+06
1.27874e+06
1.28032e+06
1.2818e+06
1.28319e+06
1.28448e+06
1.28569e+06
1.28682e+06
1.28788e+06
1.28887e+06
1.2898e+06
1.29065e+06
1.29149e+06
1.29216e+06
1.29326e+06
86749
110130
186589
267028
337014
391387
428490
449969
457344
454340
446569
435114
421837
408250
395290
383283
372452
362871
354482
347317
341150
336066
331766
328292
325326
322873
320632
318628
316739
314993
313297
311824
310534
309466
308639
308067
307764
307621
307651
307792
308057
308425
308891
309449
310086
310799
311583
312432
313342
314310
315331
316402
317522
318688
319895
321135
322404
323695
325002
326321
327646
328974
330304
331634
332964
334293
335623
336952
338281
339612
340946
342283
343625
344971
346324
347683
349050
350425
351808
353200
354602
356013
357435
358867
360309
361762
363226
364702
366188
367686
369196
370717
372249
373793
375349
376917
378496
380087
381690
383306
384933
386572
388223
389886
391562
393251
394951
396664
398390
400129
401880
403644
405421
407211
409014
410829
412658
414500
416355
418223
420104
421998
423905
425825
427758
429704
431663
433634
435619
437616
439627
441650
443686
445735
447797
449871
451959
454059
456173
458299
460438
462590
464755
466933
469124
471328
473545
475776
478019
480276
482545
484828
487124
489433
491756
494092
496441
498804
501180
503569
505971
508387
510817
513259
515715
518184
520667
523163
525673
528196
530733
533283
535847
538425
541017
543622
546242
548875
551523
554187
556865
559557
562264
564986
567723
570475
573244
576028
578828
581645
584479
587330
590198
593083
595986
598908
601848
604807
607785
610784
613804
616843
619902
622982
626083
629205
632349
635514
638702
641912
645145
648399
651677
654978
658302
661649
665020
668415
671836
675280
678748
682239
685753
689291
692852
696438
700046
703678
707334
711012
714715
718441
722189
725961
729757
733578
737420
741285
745172
749081
753012
756966
760940
764937
768955
772996
777057
781140
785243
789368
793516
797684
801872
806080
810308
814557
818824
823111
827419
831745
836092
840458
844844
849251
853678
858124
862588
867070
871570
876088
880624
885178
889751
894341
898948
903575
908221
912884
917564
922259
926971
931701
936446
941208
945987
950782
955592
960422
965268
970127
975004
979896
984802
989724
994661
999613
1.00458e+06
1.00956e+06
1.01456e+06
1.01957e+06
1.0246e+06
1.02964e+06
1.0347e+06
1.03976e+06
1.04485e+06
1.04994e+06
1.05505e+06
1.06018e+06
1.06531e+06
1.07046e+06
1.07562e+06
1.0808e+06
1.08599e+06
1.09118e+06
1.09639e+06
1.10193e+06
1.10762e+06
1.11295e+06
1.11794e+06
1.12261e+06
1.12698e+06
1.13107e+06
1.1349e+06
1.13848e+06
1.14183e+06
1.14495e+06
1.14788e+06
1.15062e+06
1.15318e+06
1.15557e+06
1.15781e+06
1.1599e+06
1.16186e+06
1.16368e+06
1.16539e+06
1.16699e+06
1.16848e+06
1.16988e+06
1.17118e+06
1.1724e+06
1.17354e+06
1.17461e+06
1.17561e+06
1.17654e+06
1.17741e+06
1.17823e+06
1.17898e+06
1.17972e+06
1.1803e+06
1.18127e+06
86790.4
111595
187556
265095
329537
375917
403766
414663
410914
400651
385251
367198
348480
330374
313601
298492
285254
273881
264279
256316
249807
244620
240591
237612
235447
233908
232772
231892
231234
230708
230240
229871
229654
229585
229625
229763
230012
230351
230755
231223
231755
232334
232963
233644
234368
235141
235964
236830
237739
238692
239686
240720
241796
242909
244055
245224
246408
247604
248802
249997
251186
252366
253536
254694
255847
256992
258129
259257
260379
261493
262603
263709
264811
265912
267011
268111
269210
270311
271414
272519
273626
274737
275851
276970
278092
279218
280350
281486
282627
283773
284925
286082
287244
288412
289585
290763
291947
293137
294332
295532
296738
297950
299167
300390
301618
302853
304092
305338
306590
307848
309114
310386
311664
312949
314241
315538
316843
318154
319471
320795
322127
323464
324809
326160
327518
328883
330255
331634
333020
334413
335813
337220
338635
340056
341484
342919
344362
345811
347268
348732
350203
351682
353167
354661
356161
357669
359184
360707
362237
363775
365321
366874
368435
370003
371579
373163
374756
376356
377964
379579
381203
382835
384474
386122
387778
389442
391115
392796
394485
396183
397889
399603
401327
403059
404800
406550
408309
410077
411856
413645
415443
417250
419067
420894
422731
424579
426438
428307
430188
432080
433984
435899
437827
439766
441718
443684
445662
447653
449659
451679
453714
455762
457824
459900
461991
464097
466218
468354
470505
472672
474855
477052
479266
481495
483740
486002
488279
490575
492887
495215
497558
499917
502291
504680
507086
509507
511943
514396
516863
519346
521844
524358
526887
529431
531993
534570
537162
539766
542385
545019
547666
550328
553003
555693
558397
561114
563846
566591
569354
572134
574928
577735
580554
583385
586229
589086
591956
594837
597732
600639
603559
606492
609438
612399
615373
618357
621352
624359
627377
630406
633447
636500
639564
642640
645727
648828
651941
655065
658198
661342
664495
667660
670835
674020
677217
680424
683642
686872
690112
693362
696620
699888
703166
706453
709751
713058
716374
719701
723037
726382
729735
733098
736468
739848
743234
746630
750034
753445
756865
760291
763724
767163
770608
774061
777517
781190
784959
788491
791796
794883
797769
800467
802988
805342
807544
809601
811523
813316
814991
816553
818016
819380
820658
821847
822961
823998
824970
825875
826723
827513
828251
828942
829584
830191
830745
831287
831756
832253
832607
833223
8332.36
11785
21297
39144.3
63999.1
92952.5
122307
148741
170124
185361
194399
200153
200093
198726
195620
192042
189354
188136
187327
186842
185726
184217
181903
179204
175810
172227
168377
164701
161152
158004
155049
152408
149923
147704
145756
144267
143097
142113
141261
140498
139835
139254
138753
138315
137941
137617
137338
137106
136916
136767
136660
136591
136560
136570
136608
136681
136788
136926
137102
137310
137544
137803
138084
138383
138700
139032
139378
139737
140107
140487
140877
141275
141681
142095
142516
142943
143377
143817
144263
144715
145172
145636
146104
146579
147059
147544
148035
148532
149034
149542
150055
150574
151099
151630
152166
152708
153256
153810
154370
154936
155508
156086
156670
157260
157857
158460
159069
159684
160305
160933
161567
162208
162855
163509
164169
164836
165510
166190
166877
167571
168271
168979
169693
170414
171143
171879
172621
173372
174129
174894
175666
176447
177235
178030
178834
179646
180465
181293
182129
182974
183827
184688
185557
186436
187322
188218
189122
190034
190955
191885
192823
193770
194726
195690
196663
197644
198635
199633
200641
201658
202683
203717
204759
205811
206871