/*--------------------------------*- C++ -*----------------------------------*\
| =========                 |                                                 |
| \\      /  F ield         | OpenFOAM: The Open Source CFD Toolbox           |
|  \\    /   O peration     | Version:  2.4.0                                 |
|   \\  /    A nd           | Web:      www.OpenFOAM.org                      |
|    \\/     M anipulation  |                                                 |
\*---------------------------------------------------------------------------*/
FoamFile
{
    version     2.0;
    format      ascii;
    class       surfaceScalarField;
    location    "15000/fluid";
    object      phi;
}
// * * * * * * * * * * * * * * * * * * * * * * * * * * * * * * * * * * * * * //

dimensions      [1 0 -1 0 0 0 0];

internalField   nonuniform List<scalar> 
300700
(
1.69637e-05
-3.68094e-09
3.12519e-07
1.65686e-05
-3.00813e-08
4.25205e-07
1.61503e-05
-4.14091e-08
4.59671e-07
1.57012e-05
-4.68134e-08
4.95941e-07
1.52196e-05
-5.21597e-08
5.33791e-07
1.47177e-05
-5.73075e-08
5.59149e-07
1.42042e-05
-5.67497e-08
5.70252e-07
1.36858e-05
-5.87986e-08
5.77208e-07
1.31747e-05
-5.50196e-08
5.66152e-07
1.2672e-05
-5.57886e-08
5.58521e-07
1.21863e-05
-4.87003e-08
5.34364e-07
1.17253e-05
-4.90694e-08
5.1002e-07
1.12968e-05
-3.98377e-08
4.68363e-07
1.09106e-05
-4.10849e-08
4.27338e-07
1.05735e-05
-3.09208e-08
3.67948e-07
1.02863e-05
-3.46158e-08
3.21802e-07
1.00454e-05
-2.4114e-08
2.65101e-07
9.85044e-06
-3.10314e-08
2.25953e-07
9.70095e-06
-1.94239e-08
1.68913e-07
9.59486e-06
-2.57618e-08
1.31847e-07
9.53894e-06
-2.01679e-08
7.60935e-08
9.50903e-06
-3.05817e-08
6.04863e-08
9.50422e-06
-1.45026e-08
1.93131e-08
9.51972e-06
-3.62612e-08
2.07668e-08
9.54862e-06
-1.55436e-08
-1.33624e-08
9.58433e-06
-3.77564e-08
2.04663e-09
9.62253e-06
-1.91635e-08
-1.90346e-08
9.66158e-06
-3.83786e-08
-6.70176e-10
9.70258e-06
-2.31107e-08
-1.78891e-08
9.74485e-06
-3.77657e-08
-4.50671e-09
9.79246e-06
-2.78054e-08
-1.98038e-08
9.84622e-06
-3.68465e-08
-1.69155e-08
9.9072e-06
-3.21271e-08
-2.88467e-08
9.97244e-06
-3.48767e-08
-3.036e-08
1.00393e-05
-2.54812e-08
-4.14227e-08
1.00948e-05
-2.49984e-08
-3.04254e-08
1.01466e-05
-1.66335e-08
-3.51594e-08
1.01936e-05
-1.34491e-08
-3.35594e-08
1.02366e-05
-1.02765e-08
-3.27596e-08
1.02755e-05
-4.24764e-09
-3.46785e-08
1.03099e-05
-2.5397e-09
-3.18199e-08
1.03399e-05
7.57805e-10
-3.07904e-08
1.03661e-05
2.39411e-09
-2.85742e-08
1.03886e-05
5.08469e-09
-2.76268e-08
1.04077e-05
5.93744e-09
-2.50236e-08
1.04239e-05
7.23556e-09
-2.34429e-08
1.04373e-05
8.18949e-09
-2.15343e-08
1.04481e-05
8.48913e-09
-1.92615e-08
1.04565e-05
8.94993e-09
-1.74345e-08
1.04629e-05
8.92955e-09
-1.52926e-08
1.04673e-05
8.64783e-09
-1.3096e-08
1.04702e-05
8.21876e-09
-1.10553e-08
1.04716e-05
7.51307e-09
-8.91503e-09
1.04718e-05
6.84585e-09
-7.03777e-09
1.04709e-05
6.06551e-09
-5.197e-09
1.0469e-05
5.10393e-09
-3.2336e-09
1.04664e-05
4.32276e-09
-1.6502e-09
1.04629e-05
3.45663e-09
3.08263e-11
1.04586e-05
2.65501e-09
1.64936e-09
1.04535e-05
1.9172e-09
3.13352e-09
1.04478e-05
1.23865e-09
4.52549e-09
1.04413e-05
6.31116e-10
5.79863e-09
1.04343e-05
9.0061e-11
6.95544e-09
1.04267e-05
-3.88359e-10
8.00507e-09
1.04185e-05
-8.06062e-10
8.94425e-09
1.04099e-05
-1.16271e-09
9.79921e-09
1.04008e-05
-1.46357e-09
1.05753e-08
1.03912e-05
-1.71359e-09
1.12814e-08
1.03812e-05
-1.91774e-09
1.19289e-08
1.03708e-05
-2.08096e-09
1.25264e-08
1.03599e-05
-2.20679e-09
1.308e-08
1.03486e-05
-2.3032e-09
1.36006e-08
1.03369e-05
-2.37333e-09
1.40949e-08
1.03247e-05
-2.42263e-09
1.45668e-08
1.03122e-05
-2.45418e-09
1.50215e-08
1.02992e-05
-2.47085e-09
1.5464e-08
1.02857e-05
-2.47637e-09
1.58945e-08
1.02719e-05
-2.47249e-09
1.63176e-08
1.02576e-05
-2.46173e-09
1.67377e-08
1.02429e-05
-2.44636e-09
1.71561e-08
1.02278e-05
-2.42809e-09
1.75723e-08
1.02122e-05
-2.40862e-09
1.79873e-08
1.01962e-05
-2.38949e-09
1.84029e-08
1.01797e-05
-2.37052e-09
1.88187e-08
1.01628e-05
-2.35205e-09
1.92347e-08
1.01455e-05
-2.33588e-09
1.96518e-08
1.01278e-05
-2.32289e-09
2.00699e-08
1.01096e-05
-2.31252e-09
2.04883e-08
1.0091e-05
-2.30556e-09
2.09071e-08
1.0072e-05
-2.30222e-09
2.13254e-08
1.00525e-05
-2.30263e-09
2.17436e-08
1.00327e-05
-2.30548e-09
2.21621e-08
1.00124e-05
-2.31099e-09
2.25796e-08
9.99174e-06
-2.32124e-09
2.2995e-08
9.97067e-06
-2.33581e-09
2.34077e-08
9.9492e-06
-2.35232e-09
2.38187e-08
9.92735e-06
-2.37125e-09
2.42271e-08
9.90511e-06
-2.39444e-09
2.46311e-08
9.8825e-06
-2.41965e-09
2.50323e-08
9.85952e-06
-2.44759e-09
2.54286e-08
9.83617e-06
-2.47814e-09
2.58204e-08
9.81248e-06
-2.50971e-09
2.62071e-08
9.78843e-06
-2.5436e-09
2.65897e-08
9.76404e-06
-2.57954e-09
2.69697e-08
9.73931e-06
-2.61695e-09
2.73422e-08
9.71427e-06
-2.65564e-09
2.77032e-08
9.68891e-06
-2.69483e-09
2.80558e-08
9.66324e-06
-2.73537e-09
2.84e-08
9.63728e-06
-2.77595e-09
2.87348e-08
9.61104e-06
-2.81622e-09
2.90611e-08
9.58452e-06
-2.85852e-09
2.93761e-08
9.55774e-06
-2.90018e-09
2.9681e-08
9.53071e-06
-2.94204e-09
2.99751e-08
9.50344e-06
-2.98474e-09
3.02559e-08
9.47594e-06
-3.02612e-09
3.05253e-08
9.44822e-06
-3.06725e-09
3.07826e-08
9.4203e-06
-3.10979e-09
3.10257e-08
9.3922e-06
-3.1513e-09
3.12548e-08
9.36392e-06
-3.19131e-09
3.14709e-08
9.33548e-06
-3.23131e-09
3.16727e-08
9.30689e-06
-3.27209e-09
3.18593e-08
9.27817e-06
-3.31255e-09
3.20309e-08
9.24934e-06
-3.35132e-09
3.21895e-08
9.22039e-06
-3.389e-09
3.2335e-08
9.19135e-06
-3.42671e-09
3.24661e-08
9.16223e-06
-3.46416e-09
3.25829e-08
9.13305e-06
-3.5014e-09
3.26867e-08
9.10381e-06
-3.53743e-09
3.27777e-08
9.07452e-06
-3.57226e-09
3.28575e-08
9.0452e-06
-3.60513e-09
3.29282e-08
9.01584e-06
-3.63641e-09
3.29916e-08
8.98646e-06
-3.66791e-09
3.30471e-08
8.95707e-06
-3.69897e-09
3.30906e-08
8.92768e-06
-3.72813e-09
3.31242e-08
8.89828e-06
-3.75431e-09
3.31504e-08
8.86889e-06
-3.77968e-09
3.31695e-08
8.83951e-06
-3.80331e-09
3.31833e-08
8.81014e-06
-3.82358e-09
3.31921e-08
8.78079e-06
-3.84289e-09
3.31961e-08
8.75145e-06
-3.85902e-09
3.3196e-08
8.72213e-06
-3.87301e-09
3.31917e-08
8.69284e-06
-3.88474e-09
3.31833e-08
8.66356e-06
-3.89397e-09
3.31707e-08
8.63431e-06
-3.9011e-09
3.31528e-08
8.60508e-06
-3.905e-09
3.31302e-08
8.57589e-06
-3.90826e-09
3.31018e-08
8.54673e-06
-3.90833e-09
3.30669e-08
8.51761e-06
-3.90562e-09
3.30252e-08
8.48854e-06
-3.90343e-09
3.29762e-08
8.45951e-06
-3.89638e-09
3.29191e-08
8.43055e-06
-3.88742e-09
3.28536e-08
8.40165e-06
-3.87864e-09
3.27786e-08
8.37282e-06
-3.86734e-09
3.26952e-08
8.34407e-06
-3.85346e-09
3.26012e-08
8.31542e-06
-3.83734e-09
3.24934e-08
8.28686e-06
-3.82109e-09
3.23751e-08
8.25842e-06
-3.80603e-09
3.22521e-08
8.23009e-06
-3.79044e-09
3.2121e-08
8.20188e-06
-3.77373e-09
3.19778e-08
8.17381e-06
-3.75579e-09
3.18255e-08
8.14588e-06
-3.73514e-09
3.16636e-08
8.11811e-06
-3.71358e-09
3.14917e-08
8.09049e-06
-3.69252e-09
3.13111e-08
8.06303e-06
-3.67037e-09
3.11226e-08
8.03575e-06
-3.64761e-09
3.09282e-08
8.00865e-06
-3.62444e-09
3.07266e-08
7.98173e-06
-3.60135e-09
3.0519e-08
7.955e-06
-3.57668e-09
3.03069e-08
7.92847e-06
-3.55022e-09
3.0089e-08
7.90212e-06
-3.52411e-09
2.98665e-08
7.87598e-06
-3.49702e-09
2.96408e-08
7.85004e-06
-3.47134e-09
2.94094e-08
7.82431e-06
-3.4446e-09
2.91732e-08
7.79879e-06
-3.4146e-09
2.89352e-08
7.77349e-06
-3.38892e-09
2.86918e-08
7.7484e-06
-3.36156e-09
2.84465e-08
7.72353e-06
-3.33016e-09
2.81993e-08
7.6989e-06
-3.29791e-09
2.79327e-08
7.6745e-06
-3.26704e-09
2.76681e-08
7.65033e-06
-3.23929e-09
2.74111e-08
7.62639e-06
-3.21112e-09
2.71516e-08
7.60268e-06
-3.1824e-09
2.68867e-08
7.57922e-06
-3.15258e-09
2.66132e-08
7.55601e-06
-3.12545e-09
2.63392e-08
7.53305e-06
-3.09931e-09
2.60551e-08
7.51035e-06
-3.06768e-09
2.57681e-08
7.48791e-06
-3.03841e-09
2.54796e-08
7.46574e-06
-3.01276e-09
2.51801e-08
7.44385e-06
-2.98337e-09
2.48762e-08
7.42223e-06
-2.95262e-09
2.45712e-08
7.40089e-06
-2.92329e-09
2.42607e-08
7.37985e-06
-2.89646e-09
2.39411e-08
7.3591e-06
-2.8691e-09
2.36141e-08
7.33866e-06
-2.83952e-09
2.32844e-08
7.31852e-06
-2.80831e-09
2.29502e-08
7.29869e-06
-2.77623e-09
2.26084e-08
7.27917e-06
-2.74715e-09
2.22591e-08
7.25999e-06
-2.71759e-09
2.19015e-08
7.24115e-06
-2.68088e-09
2.15258e-08
7.22264e-06
-2.64586e-09
2.1152e-08
7.20447e-06
-2.61469e-09
2.07853e-08
7.18664e-06
-2.58448e-09
2.04085e-08
7.16917e-06
-2.55209e-09
2.00249e-08
7.15205e-06
-2.51813e-09
1.96367e-08
7.13529e-06
-2.47972e-09
1.92378e-08
7.1189e-06
-2.44407e-09
1.88341e-08
7.10289e-06
-2.40886e-09
1.84226e-08
7.08725e-06
-2.36974e-09
1.80061e-08
7.072e-06
-2.32934e-09
1.75848e-08
7.05713e-06
-2.2881e-09
1.71568e-08
7.04265e-06
-2.2492e-09
1.67253e-08
7.02857e-06
-2.20369e-09
1.62855e-08
7.01489e-06
-2.1585e-09
1.58406e-08
7.00161e-06
-2.11277e-09
1.53959e-08
6.98873e-06
-2.06649e-09
1.49434e-08
6.97626e-06
-2.01962e-09
1.44883e-08
6.96421e-06
-1.96555e-09
1.40197e-08
6.95258e-06
-1.91416e-09
1.35395e-08
6.94136e-06
-1.85939e-09
1.30769e-08
6.93056e-06
-1.80643e-09
1.2616e-08
6.92016e-06
-1.75258e-09
1.21459e-08
6.91018e-06
-1.69586e-09
1.16801e-08
6.9006e-06
-1.63783e-09
1.12126e-08
6.89144e-06
-1.5774e-09
1.07381e-08
6.8827e-06
-1.52072e-09
1.0263e-08
6.87437e-06
-1.45962e-09
9.78955e-09
6.86645e-06
-1.39658e-09
9.31788e-09
6.85894e-06
-1.33532e-09
8.84683e-09
6.85183e-06
-1.26985e-09
8.37313e-09
6.84514e-06
-1.20267e-09
7.90089e-09
6.83884e-06
-1.13809e-09
7.43283e-09
6.83295e-06
-1.07103e-09
6.96313e-09
6.82745e-06
-1.00262e-09
6.49848e-09
6.82236e-06
-9.33715e-10
6.02275e-09
6.81768e-06
-8.64213e-10
5.54974e-09
6.81338e-06
-7.96829e-10
5.09669e-09
6.80947e-06
-7.28393e-10
4.64188e-09
6.80593e-06
-6.55819e-10
4.18992e-09
6.80276e-06
-5.82299e-10
3.75099e-09
6.79996e-06
-5.14427e-10
3.31918e-09
6.79753e-06
-4.43516e-10
2.87346e-09
6.79546e-06
-3.71105e-10
2.43618e-09
6.79374e-06
-2.97191e-10
2.02009e-09
6.79237e-06
-2.259e-10
1.59178e-09
6.79136e-06
-1.58423e-10
1.1711e-09
6.79068e-06
-8.25214e-11
7.63513e-10
6.79034e-06
-1.39662e-11
3.51656e-10
6.79033e-06
5.7654e-11
-4.10209e-11
6.79063e-06
1.29893e-10
-4.36688e-10
6.79126e-06
1.98416e-10
-8.26705e-10
6.79218e-06
2.7129e-10
-1.19534e-09
6.7934e-06
3.41711e-10
-1.56055e-09
6.79491e-06
4.14762e-10
-1.91787e-09
6.7967e-06
4.87062e-10
-2.27614e-09
6.79876e-06
5.61059e-10
-2.62903e-09
6.80112e-06
6.29429e-10
-2.9806e-09
6.80375e-06
6.97934e-10
-3.3294e-09
6.80664e-06
7.70439e-10
-3.66679e-09
6.80982e-06
8.33072e-10
-4.00536e-09
6.81326e-06
8.95867e-10
-4.33783e-09
6.81695e-06
9.70211e-10
-4.66313e-09
6.8209e-06
1.03707e-09
-4.98435e-09
6.82511e-06
1.09671e-09
-5.31416e-09
6.82958e-06
1.16089e-09
-5.62793e-09
6.83427e-06
1.22839e-09
-5.91624e-09
6.83919e-06
1.29523e-09
-6.21435e-09
6.84434e-06
1.35266e-09
-6.49963e-09
6.8497e-06
1.41065e-09
-6.77608e-09
6.85528e-06
1.47804e-09
-7.05735e-09
6.86106e-06
1.53902e-09
-7.32034e-09
6.86704e-06
1.59904e-09
-7.58021e-09
6.87322e-06
1.65796e-09
-7.83998e-09
6.8796e-06
1.71469e-09
-8.09069e-09
6.88616e-06
1.77521e-09
-8.33269e-09
6.89291e-06
1.82731e-09
-8.58087e-09
6.89986e-06
1.88032e-09
-8.82929e-09
6.90698e-06
1.93616e-09
-9.05353e-09
6.91426e-06
1.98771e-09
-9.27217e-09
6.92171e-06
2.04515e-09
-9.48842e-09
6.9293e-06
2.09754e-09
-9.69176e-09
6.93705e-06
2.14779e-09
-9.89578e-09
6.94494e-06
2.19955e-09
-1.00961e-08
6.95298e-06
2.24771e-09
-1.02863e-08
6.96116e-06
2.29745e-09
-1.0477e-08
6.96948e-06
2.34348e-09
-1.06625e-08
6.97793e-06
2.38636e-09
-1.08371e-08
6.98652e-06
2.43281e-09
-1.10175e-08
6.99523e-06
2.47461e-09
-1.11908e-08
7.00406e-06
2.51607e-09
-1.13474e-08
7.01301e-06
2.56301e-09
-1.15038e-08
7.02206e-06
2.6059e-09
-1.16597e-08
7.03122e-06
2.64489e-09
-1.18092e-08
7.04049e-06
2.68234e-09
-1.19492e-08
7.04986e-06
2.72188e-09
-1.20874e-08
7.05932e-06
2.7589e-09
-1.22265e-08
7.06888e-06
2.80095e-09
-1.23596e-08
7.07853e-06
2.83636e-09
-1.24816e-08
7.08827e-06
2.86848e-09
-1.26125e-08
7.09811e-06
2.89637e-09
-1.27359e-08
7.10803e-06
2.92908e-09
-1.28493e-08
7.11803e-06
2.96581e-09
-1.29622e-08
7.12811e-06
2.99766e-09
-1.3075e-08
7.13825e-06
3.02522e-09
-1.31747e-08
7.14847e-06
3.06159e-09
-1.3278e-08
7.15876e-06
3.09158e-09
-1.33784e-08
7.16912e-06
3.11969e-09
-1.34809e-08
7.17955e-06
3.13069e-09
-1.35663e-08
7.19006e-06
3.15984e-09
-1.36616e-08
7.20062e-06
3.18711e-09
-1.3749e-08
7.21124e-06
3.22008e-09
-1.38425e-08
7.22192e-06
3.23827e-09
-1.3919e-08
7.23267e-06
3.26437e-09
-1.40136e-08
7.24348e-06
3.28308e-09
-1.4096e-08
7.25435e-06
3.3249e-09
-1.41955e-08
7.26527e-06
3.33631e-09
-1.42511e-08
7.27762e-06
3.78091e-09
-1.61327e-08
7.28927e-06
3.5477e-09
-1.51975e-08
7.3002e-06
3.36642e-09
-1.43003e-08
7.31048e-06
3.14404e-09
-1.34154e-08
7.32013e-06
2.96992e-09
-1.26209e-08
7.32918e-06
2.78192e-09
-1.18366e-08
7.33769e-06
2.62206e-09
-1.11261e-08
7.34568e-06
2.44933e-09
-1.04418e-08
7.35317e-06
2.3165e-09
-9.8096e-09
7.36022e-06
2.15904e-09
-9.20392e-09
7.3668e-06
2.04429e-09
-8.63182e-09
7.373e-06
1.90599e-09
-8.10269e-09
7.37881e-06
1.78937e-09
-7.59555e-09
7.38425e-06
1.67404e-09
-7.12224e-09
7.38935e-06
1.58586e-09
-6.67967e-09
7.39415e-06
1.47222e-09
-6.27791e-09
7.39864e-06
1.38171e-09
-5.86811e-09
7.40286e-06
1.30006e-09
-5.52138e-09
7.40679e-06
1.2242e-09
-5.15413e-09
7.41051e-06
1.13947e-09
-4.85674e-09
7.41397e-06
1.06789e-09
-4.5306e-09
7.41725e-06
9.97259e-10
-4.27114e-09
7.42028e-06
9.41418e-10
-3.97459e-09
7.42314e-06
8.79363e-10
-3.74354e-09
7.4258e-06
8.30554e-10
-3.48908e-09
7.42832e-06
7.71831e-10
-3.29515e-09
7.43066e-06
7.27107e-10
-3.06333e-09
7.43288e-06
6.68795e-10
-2.88946e-09
7.43493e-06
6.42552e-10
-2.69274e-09
7.43688e-06
5.73891e-10
-2.52657e-09
7.4387e-06
5.72718e-10
-2.38561e-09
7.44039e-06
4.94311e-10
-2.184e-09
7.44205e-06
4.99002e-10
-2.16579e-09
7.44344e-06
4.28163e-10
-1.81028e-09
4.20471e-10
-2.13744e-09
1.69642e-05
-8.71978e-09
3.13438e-07
1.65707e-05
-6.12658e-08
4.24662e-07
1.61529e-05
-8.32342e-08
4.59602e-07
1.57043e-05
-9.39872e-08
4.95806e-07
1.5223e-05
-1.04505e-07
5.33595e-07
1.47213e-05
-1.14612e-07
5.5906e-07
1.42078e-05
-1.1344e-07
5.70186e-07
1.36893e-05
-1.17438e-07
5.77089e-07
1.31781e-05
-1.09772e-07
5.65954e-07
1.26752e-05
-1.11041e-07
5.58165e-07
1.21894e-05
-9.77802e-08
5.34865e-07
1.17282e-05
-9.70463e-08
5.09192e-07
1.12995e-05
-8.07023e-08
4.69541e-07
1.09129e-05
-8.05604e-08
4.26078e-07
1.05757e-05
-6.36796e-08
3.69994e-07
1.02881e-05
-6.73062e-08
3.20272e-07
1.00469e-05
-5.06696e-08
2.67747e-07
9.85165e-06
-6.01377e-08
2.24372e-07
9.70206e-06
-4.16067e-08
1.71774e-07
9.5956e-06
-4.81848e-08
1.28883e-07
9.53954e-06
-4.38791e-08
7.97697e-08
9.50922e-06
-5.89439e-08
5.86858e-08
9.50397e-06
-3.27982e-08
2.35438e-08
9.51954e-06
-6.96862e-08
1.78483e-08
9.54819e-06
-3.40241e-08
-1.01688e-08
9.584e-06
-7.37277e-08
1.61345e-10
9.62223e-06
-3.91277e-08
-1.82632e-08
9.66129e-06
-7.32667e-08
-4.16804e-09
9.70201e-06
-4.65308e-08
-1.72972e-08
9.7443e-06
-7.09587e-08
-9.10231e-09
9.791e-06
-5.20986e-08
-2.24085e-08
9.84346e-06
-7.16284e-08
-1.76716e-08
9.90176e-06
-5.63355e-08
-3.40942e-08
9.96252e-06
-7.07993e-08
-2.4843e-08
1.00246e-05
-4.76381e-08
-3.99184e-08
1.00753e-05
-4.53064e-08
-3.03762e-08
1.01217e-05
-3.13937e-08
-3.16769e-08
1.01634e-05
-2.66162e-08
-2.85009e-08
1.02013e-05
-2.0119e-08
-2.80683e-08
1.02354e-05
-9.75129e-09
-2.86211e-08
1.02655e-05
-6.37611e-09
-2.62577e-08
1.02919e-05
-5.53707e-10
-2.50259e-08
1.03149e-05
2.44125e-09
-2.30944e-08
1.03348e-05
7.06877e-09
-2.19159e-08
1.03518e-05
8.66276e-09
-1.97088e-08
1.03664e-05
1.09702e-08
-1.82776e-08
1.03785e-05
1.28034e-08
-1.67112e-08
1.03883e-05
1.34558e-08
-1.48407e-08
1.03962e-05
1.43253e-08
-1.32515e-08
1.04022e-05
1.4409e-08
-1.1486e-08
1.04065e-05
1.40182e-08
-9.6704e-09
1.04094e-05
1.33878e-08
-8.01494e-09
1.04109e-05
1.22087e-08
-6.22444e-09
1.04113e-05
1.11066e-08
-4.67023e-09
1.04107e-05
9.79415e-09
-3.13753e-09
1.04091e-05
8.12354e-09
-1.45831e-09
1.04068e-05
6.80071e-09
-1.0557e-10
1.04036e-05
5.3087e-09
1.35016e-09
1.03996e-05
3.91031e-09
2.76204e-09
1.03948e-05
2.61231e-09
4.06771e-09
1.03893e-05
1.41699e-09
5.30256e-09
1.03832e-05
3.49615e-10
6.44064e-09
1.03764e-05
-6.02489e-10
7.48522e-09
1.0369e-05
-1.43917e-09
8.43706e-09
1.0361e-05
-2.16486e-09
9.2928e-09
1.03526e-05
-2.78191e-09
1.00785e-08
1.03436e-05
-3.29764e-09
1.07955e-08
1.03342e-05
-3.72216e-09
1.14526e-08
1.03243e-05
-4.06521e-09
1.20606e-08
1.03139e-05
-4.33509e-09
1.2624e-08
1.03031e-05
-4.53844e-09
1.3151e-08
1.02918e-05
-4.69005e-09
1.36522e-08
1.02801e-05
-4.7966e-09
1.41297e-08
1.0268e-05
-4.86618e-09
1.45889e-08
1.02554e-05
-4.90741e-09
1.50353e-08
1.02424e-05
-4.92262e-09
1.54711e-08
1.02289e-05
-4.91688e-09
1.58977e-08
1.0215e-05
-4.89781e-09
1.63195e-08
1.02007e-05
-4.8695e-09
1.67396e-08
1.01859e-05
-4.8338e-09
1.71576e-08
1.01707e-05
-4.79316e-09
1.7575e-08
1.0155e-05
-4.75161e-09
1.79933e-08
1.0139e-05
-4.71187e-09
1.84118e-08
1.01224e-05
-4.67412e-09
1.88299e-08
1.01055e-05
-4.63986e-09
1.92491e-08
1.00881e-05
-4.61097e-09
1.96697e-08
1.00702e-05
-4.58826e-09
2.00906e-08
1.0052e-05
-4.5712e-09
2.05115e-08
1.00333e-05
-4.56094e-09
2.09327e-08
1.00142e-05
-4.55749e-09
2.13539e-08
9.9947e-06
-4.56117e-09
2.17752e-08
9.97477e-06
-4.57091e-09
2.21952e-08
9.95443e-06
-4.58755e-09
2.26132e-08
9.93369e-06
-4.6131e-09
2.30292e-08
9.91256e-06
-4.64445e-09
2.34432e-08
9.89103e-06
-4.68062e-09
2.38551e-08
9.86912e-06
-4.7239e-09
2.42626e-08
9.84683e-06
-4.77277e-09
2.46665e-08
9.82417e-06
-4.82587e-09
2.50671e-08
9.80115e-06
-4.88472e-09
2.54619e-08
9.77777e-06
-4.9476e-09
2.58519e-08
9.75403e-06
-5.01388e-09
2.62364e-08
9.72996e-06
-5.08366e-09
2.66169e-08
9.70554e-06
-5.15733e-09
2.69942e-08
9.68079e-06
-5.23378e-09
2.73636e-08
9.65573e-06
-5.31181e-09
2.77215e-08
9.63036e-06
-5.39162e-09
2.807e-08
9.60468e-06
-5.47297e-09
2.84103e-08
9.57872e-06
-5.5555e-09
2.87403e-08
9.55248e-06
-5.63734e-09
2.90612e-08
9.52597e-06
-5.72144e-09
2.93715e-08
9.49921e-06
-5.80579e-09
2.96705e-08
9.4722e-06
-5.88935e-09
2.99589e-08
9.44495e-06
-5.97422e-09
3.02341e-08
9.41749e-06
-6.05825e-09
3.04968e-08
9.38981e-06
-6.14064e-09
3.07475e-08
9.36194e-06
-6.22433e-09
3.09845e-08
9.33389e-06
-6.30808e-09
3.12069e-08
9.30568e-06
-6.38961e-09
3.14159e-08
9.2773e-06
-6.46931e-09
3.16113e-08
9.24879e-06
-6.54991e-09
3.1792e-08
9.22015e-06
-6.63087e-09
3.19577e-08
9.1914e-06
-6.71023e-09
3.21095e-08
9.16255e-06
-6.78676e-09
3.22487e-08
9.13361e-06
-6.86165e-09
3.23746e-08
9.10459e-06
-6.93593e-09
3.24867e-08
9.07552e-06
-7.01013e-09
3.25863e-08
9.04639e-06
-7.08306e-09
3.26732e-08
9.01722e-06
-7.15377e-09
3.27492e-08
8.98802e-06
-7.22048e-09
3.28163e-08
8.95879e-06
-7.28342e-09
3.28766e-08
8.92954e-06
-7.34665e-09
3.29296e-08
8.90028e-06
-7.40775e-09
3.29717e-08
8.87101e-06
-7.46408e-09
3.30042e-08
8.84174e-06
-7.51697e-09
3.30292e-08
8.81248e-06
-7.56652e-09
3.30477e-08
8.78323e-06
-7.61158e-09
3.30612e-08
8.75399e-06
-7.65218e-09
3.30691e-08
8.72476e-06
-7.68861e-09
3.30728e-08
8.69555e-06
-7.71976e-09
3.30721e-08
8.66635e-06
-7.74619e-09
3.30672e-08
8.63718e-06
-7.76765e-09
3.30579e-08
8.60803e-06
-7.7848e-09
3.3044e-08
8.5789e-06
-7.79689e-09
3.30246e-08
8.5498e-06
-7.80462e-09
3.29998e-08
8.52073e-06
-7.80819e-09
3.29694e-08
8.49169e-06
-7.80749e-09
3.29317e-08
8.4627e-06
-7.80142e-09
3.28868e-08
8.43376e-06
-7.7928e-09
3.28355e-08
8.40487e-06
-7.78022e-09
3.27743e-08
8.37604e-06
-7.76363e-09
3.27044e-08
8.34728e-06
-7.74363e-09
3.26257e-08
8.31859e-06
-7.72177e-09
3.25381e-08
8.29e-06
-7.69746e-09
3.24393e-08
8.2615e-06
-7.66771e-09
3.23269e-08
8.23311e-06
-7.63494e-09
3.22049e-08
8.20483e-06
-7.60485e-09
3.20787e-08
8.17667e-06
-7.57496e-09
3.19445e-08
8.14864e-06
-7.54201e-09
3.17988e-08
8.12075e-06
-7.50672e-09
3.16435e-08
8.093e-06
-7.46824e-09
3.14782e-08
8.06542e-06
-7.42889e-09
3.13035e-08
8.03799e-06
-7.38959e-09
3.11213e-08
8.01074e-06
-7.3477e-09
3.09316e-08
7.98366e-06
-7.30453e-09
3.07354e-08
7.95676e-06
-7.25985e-09
3.05331e-08
7.93005e-06
-7.21433e-09
3.0326e-08
7.90353e-06
-7.16778e-09
3.01128e-08
7.8772e-06
-7.11928e-09
2.98945e-08
7.85107e-06
-7.0669e-09
2.96722e-08
7.82514e-06
-7.01441e-09
2.94464e-08
7.79942e-06
-6.96633e-09
2.92161e-08
7.77391e-06
-6.91524e-09
2.89798e-08
7.74862e-06
-6.85953e-09
2.87416e-08
7.72353e-06
-6.80753e-09
2.85002e-08
7.69867e-06
-6.75291e-09
2.82554e-08
7.67403e-06
-6.6944e-09
2.80083e-08
7.64962e-06
-6.63336e-09
2.77426e-08
7.62545e-06
-6.57383e-09
2.74777e-08
7.6015e-06
-6.5198e-09
2.72231e-08
7.57779e-06
-6.4641e-09
2.69639e-08
7.55432e-06
-6.40741e-09
2.66981e-08
7.53109e-06
-6.35226e-09
2.6426e-08
7.50811e-06
-6.2993e-09
2.61534e-08
7.48539e-06
-6.247e-09
2.58693e-08
7.46293e-06
-6.18744e-09
2.55815e-08
7.44073e-06
-6.1269e-09
2.52944e-08
7.41879e-06
-6.07761e-09
2.49956e-08
7.39714e-06
-6.02466e-09
2.46913e-08
7.37577e-06
-5.96322e-09
2.43866e-08
7.35467e-06
-5.90387e-09
2.40763e-08
7.33387e-06
-5.8486e-09
2.37582e-08
7.31336e-06
-5.79419e-09
2.34325e-08
7.29315e-06
-5.73665e-09
2.31024e-08
7.27325e-06
-5.67557e-09
2.27674e-08
7.25367e-06
-5.61426e-09
2.24263e-08
7.2344e-06
-5.55631e-09
2.20781e-08
7.21545e-06
-5.49621e-09
2.1721e-08
7.19685e-06
-5.42454e-09
2.13446e-08
7.1786e-06
-5.35946e-09
2.09719e-08
7.16067e-06
-5.29747e-09
2.0606e-08
7.14309e-06
-5.22913e-09
2.02286e-08
7.12585e-06
-5.16344e-09
1.98479e-08
7.10897e-06
-5.09668e-09
1.94593e-08
7.09245e-06
-5.02367e-09
1.90603e-08
7.0763e-06
-4.95129e-09
1.86572e-08
7.06053e-06
-4.87825e-09
1.82478e-08
7.04513e-06
-4.80114e-09
1.7831e-08
7.03011e-06
-4.71922e-09
1.74107e-08
7.01547e-06
-4.63888e-09
1.69848e-08
7.00122e-06
-4.55375e-09
1.65518e-08
6.98737e-06
-4.46644e-09
1.61151e-08
6.97392e-06
-4.37755e-09
1.56738e-08
6.96086e-06
-4.28356e-09
1.52268e-08
6.94821e-06
-4.18952e-09
1.47735e-08
6.93596e-06
-4.09224e-09
1.43218e-08
6.92413e-06
-3.98803e-09
1.38549e-08
6.91272e-06
-3.88083e-09
1.33791e-08
6.90171e-06
-3.77299e-09
1.29174e-08
6.89112e-06
-3.67047e-09
1.24565e-08
6.88094e-06
-3.55632e-09
1.19895e-08
6.87115e-06
-3.43886e-09
1.15233e-08
6.86179e-06
-3.3266e-09
1.10572e-08
6.85283e-06
-3.21068e-09
1.0587e-08
6.84429e-06
-3.09258e-09
1.01148e-08
6.83615e-06
-2.96618e-09
9.64345e-09
6.82842e-06
-2.83946e-09
9.17279e-09
6.8211e-06
-2.71501e-09
8.70328e-09
6.81418e-06
-2.58581e-09
8.23395e-09
6.80767e-06
-2.45111e-09
7.76367e-09
6.80155e-06
-2.32097e-09
7.29743e-09
6.79584e-06
-2.18701e-09
6.83091e-09
6.79051e-06
-2.04941e-09
6.36851e-09
6.7856e-06
-1.91043e-09
5.89509e-09
6.78108e-06
-1.77033e-09
5.42472e-09
6.77694e-06
-1.63298e-09
4.97536e-09
6.77318e-06
-1.49734e-09
4.52494e-09
6.76981e-06
-1.35674e-09
4.07788e-09
6.76679e-06
-1.20642e-09
3.63917e-09
6.76413e-06
-1.06624e-09
3.20808e-09
6.76185e-06
-9.273e-10
2.7689e-09
6.75992e-06
-7.82142e-10
2.33566e-09
6.75834e-06
-6.33508e-10
1.9207e-09
6.75711e-06
-4.92177e-10
1.49667e-09
6.75623e-06
-3.55339e-10
1.08004e-09
6.75568e-06
-2.06474e-10
6.75674e-10
6.75546e-06
-6.8731e-11
2.6941e-10
6.75556e-06
7.33404e-11
-1.18666e-10
6.75599e-06
2.1832e-10
-5.1077e-10
6.75673e-06
3.5884e-10
-9.01903e-10
6.75776e-06
5.0552e-10
-1.26762e-09
6.75908e-06
6.45484e-10
-1.62814e-09
6.76069e-06
7.93182e-10
-1.9846e-09
6.76258e-06
9.35773e-10
-2.33847e-09
6.76475e-06
1.07769e-09
-2.68892e-09
6.7672e-06
1.21824e-09
-3.03548e-09
6.76993e-06
1.3508e-09
-3.38074e-09
6.77292e-06
1.49394e-09
-3.71782e-09
6.77618e-06
1.62786e-09
-4.05214e-09
6.77971e-06
1.75234e-09
-4.38268e-09
6.78349e-06
1.89345e-09
-4.70625e-09
6.78751e-06
2.02968e-09
-5.01678e-09
6.7918e-06
2.14747e-09
-5.34031e-09
6.79635e-06
2.27278e-09
-5.66019e-09
6.80112e-06
2.40523e-09
-5.94647e-09
6.80611e-06
2.53428e-09
-6.232e-09
6.81132e-06
2.65922e-09
-6.51752e-09
6.81675e-06
2.77763e-09
-6.79304e-09
6.82239e-06
2.89806e-09
-7.06302e-09
6.82824e-06
3.02067e-09
-7.33018e-09
6.83429e-06
3.13852e-09
-7.5862e-09
6.84053e-06
3.25554e-09
-7.84036e-09
6.84697e-06
3.3701e-09
-8.09038e-09
6.85358e-06
3.48554e-09
-8.32799e-09
6.86039e-06
3.59185e-09
-8.57195e-09
6.86739e-06
3.70042e-09
-8.81483e-09
6.87455e-06
3.80898e-09
-9.0351e-09
6.88188e-06
3.91403e-09
-9.25451e-09
6.88936e-06
4.02307e-09
-9.46572e-09
6.897e-06
4.12045e-09
-9.6631e-09
6.9048e-06
4.22412e-09
-9.86854e-09
6.91274e-06
4.32276e-09
-1.00641e-08
6.92082e-06
4.41916e-09
-1.02529e-08
6.92904e-06
4.5175e-09
-1.04392e-08
6.9374e-06
4.6038e-09
-1.06179e-08
6.94588e-06
4.69584e-09
-1.0796e-08
6.9545e-06
4.78757e-09
-1.09705e-08
6.96324e-06
4.86637e-09
-1.11386e-08
6.97211e-06
4.94805e-09
-1.12956e-08
6.98108e-06
5.04143e-09
-1.14508e-08
6.99016e-06
5.12382e-09
-1.16021e-08
6.99936e-06
5.19626e-09
-1.17469e-08
7.00866e-06
5.27268e-09
-1.1886e-08
7.01804e-06
5.35496e-09
-1.20203e-08
7.02753e-06
5.42816e-09
-1.21585e-08
7.03712e-06
5.50133e-09
-1.22894e-08
7.0468e-06
5.56837e-09
-1.24127e-08
7.05658e-06
5.63231e-09
-1.25387e-08
7.06644e-06
5.692e-09
-1.26557e-08
7.07637e-06
5.76376e-09
-1.27711e-08
7.08639e-06
5.83164e-09
-1.28792e-08
7.09648e-06
5.89037e-09
-1.29881e-08
7.10665e-06
5.94922e-09
-1.30907e-08
7.11689e-06
6.01545e-09
-1.31911e-08
7.1272e-06
6.06551e-09
-1.32888e-08
7.13758e-06
6.12513e-09
-1.33874e-08
7.14802e-06
6.16297e-09
-1.34718e-08
7.15853e-06
6.21836e-09
-1.35673e-08
7.16911e-06
6.2595e-09
-1.36541e-08
7.17976e-06
6.32072e-09
-1.37436e-08
7.19045e-06
6.36152e-09
-1.38193e-08
7.20121e-06
6.42054e-09
-1.39103e-08
7.21202e-06
6.45628e-09
-1.39914e-08
7.22291e-06
6.52612e-09
-1.40904e-08
7.23385e-06
6.54744e-09
-1.4145e-08
7.2462e-06
7.43742e-09
-1.60049e-08
7.25784e-06
6.98077e-09
-1.50796e-08
7.2688e-06
6.60255e-09
-1.41918e-08
7.27907e-06
6.17969e-09
-1.33117e-08
7.28872e-06
5.83911e-09
-1.25164e-08
7.29779e-06
5.45823e-09
-1.17398e-08
7.30629e-06
5.15139e-09
-1.10334e-08
7.31428e-06
4.80966e-09
-1.03509e-08
7.32178e-06
4.54163e-09
-9.72292e-09
7.32881e-06
4.24568e-09
-9.12046e-09
7.33541e-06
4.00192e-09
-8.55443e-09
7.34162e-06
3.73011e-09
-8.0322e-09
7.3474e-06
3.52329e-09
-7.52138e-09
7.35285e-06
3.28301e-09
-7.05792e-09
7.35796e-06
3.09315e-09
-6.61496e-09
7.36276e-06
2.89158e-09
-6.21763e-09
7.36723e-06
2.71856e-09
-5.80943e-09
7.37145e-06
2.5416e-09
-5.46418e-09
7.3754e-06
2.38851e-09
-5.10559e-09
7.37911e-06
2.2321e-09
-4.81152e-09
7.38257e-06
2.09669e-09
-4.48109e-09
7.38583e-06
1.96194e-09
-4.2256e-09
7.38886e-06
1.84216e-09
-3.93088e-09
7.39173e-06
1.71906e-09
-3.70758e-09
7.39439e-06
1.61699e-09
-3.45166e-09
7.39692e-06
1.50765e-09
-3.26335e-09
7.39926e-06
1.42214e-09
-3.03264e-09
7.40147e-06
1.31274e-09
-2.85875e-09
7.40351e-06
1.26073e-09
-2.66081e-09
7.40546e-06
1.13049e-09
-2.49946e-09
7.40726e-06
1.12478e-09
-2.35726e-09
7.40894e-06
9.68862e-10
-2.15767e-09
7.41061e-06
9.75532e-10
-2.14094e-09
7.41199e-06
8.37668e-10
-1.79397e-09
7.99609e-10
-2.10669e-09
1.69657e-05
-1.47757e-08
3.12939e-07
1.65752e-05
-9.5831e-08
4.25063e-07
1.61585e-05
-1.25785e-07
4.59264e-07
1.57107e-05
-1.42087e-07
4.95854e-07
1.52303e-05
-1.57009e-07
5.32922e-07
1.47286e-05
-1.72112e-07
5.59165e-07
1.42152e-05
-1.6961e-07
5.69546e-07
1.36966e-05
-1.75915e-07
5.7711e-07
1.31853e-05
-1.64119e-07
5.65689e-07
1.2682e-05
-1.65748e-07
5.57987e-07
1.21959e-05
-1.46693e-07
5.34953e-07
1.17342e-05
-1.44093e-07
5.08826e-07
1.13052e-05
-1.2232e-07
4.70609e-07
1.09178e-05
-1.18413e-07
4.25225e-07
1.05802e-05
-9.87223e-08
3.72633e-07
1.02918e-05
-9.73792e-08
3.18529e-07
1.00503e-05
-8.14045e-08
2.72215e-07
9.85432e-06
-8.56129e-08
2.2143e-07
9.70391e-06
-6.90667e-08
1.77871e-07
9.5972e-06
-6.5205e-08
1.23726e-07
9.5407e-06
-7.69547e-08
8.95803e-08
9.50971e-06
-8.08206e-08
5.28644e-08
9.50417e-06
-6.16438e-08
3.43861e-08
9.51983e-06
-9.30378e-08
7.69114e-09
9.54792e-06
-6.42116e-08
2.0996e-09
9.58389e-06
-9.75536e-08
-1.21466e-08
9.62111e-06
-6.7802e-08
-8.54311e-09
9.66016e-06
-9.64361e-08
-1.58796e-08
9.69974e-06
-7.00043e-08
-1.61053e-08
9.74042e-06
-9.59112e-08
-1.57299e-08
9.7843e-06
-7.55667e-08
-2.04121e-08
9.83275e-06
-9.88097e-08
-2.1272e-08
9.88447e-06
-7.59005e-08
-3.21521e-08
9.93646e-06
-9.92967e-08
-2.34917e-08
9.98742e-06
-6.55596e-08
-3.30406e-08
1.00278e-05
-6.43817e-08
-2.13364e-08
1.00643e-05
-4.44083e-08
-2.34475e-08
1.00964e-05
-3.85042e-08
-2.02188e-08
1.01251e-05
-3.01624e-08
-1.86863e-08
1.01508e-05
-1.77734e-08
-1.7626e-08
1.01734e-05
-1.28694e-08
-1.61205e-08
1.01933e-05
-5.67629e-09
-1.4742e-08
1.02108e-05
-1.69703e-09
-1.3403e-08
1.02261e-05
3.87508e-09
-1.21162e-08
1.02393e-05
6.10796e-09
-1.06541e-08
1.02508e-05
9.07576e-09
-9.61011e-09
1.02606e-05
1.16031e-08
-8.54005e-09
1.02687e-05
1.26816e-08
-7.34627e-09
1.02753e-05
1.39729e-08
-6.28411e-09
1.02805e-05
1.43665e-08
-5.16793e-09
1.02844e-05
1.41258e-08
-3.97235e-09
1.02871e-05
1.36191e-08
-2.93332e-09
1.02887e-05
1.23472e-08
-1.75512e-09
1.02894e-05
1.11684e-08
-7.3165e-10
1.02892e-05
9.71893e-09
2.96102e-10
1.0288e-05
7.7679e-09
1.49239e-09
1.02861e-05
6.26248e-09
2.44599e-09
1.02834e-05
4.49798e-09
3.51077e-09
1.02799e-05
2.82874e-09
4.57505e-09
1.02757e-05
1.27576e-09
5.57339e-09
1.02707e-05
-1.55372e-10
6.54246e-09
1.0265e-05
-1.43086e-09
7.45439e-09
1.02587e-05
-2.56179e-09
8.3018e-09
1.02517e-05
-3.54736e-09
9.08653e-09
1.02442e-05
-4.39299e-09
9.80191e-09
1.0236e-05
-5.1027e-09
1.04701e-08
1.02273e-05
-5.68639e-09
1.10899e-08
1.02181e-05
-6.15833e-09
1.16678e-08
1.02083e-05
-6.52943e-09
1.22094e-08
1.01981e-05
-6.8097e-09
1.27206e-08
1.01873e-05
-7.012e-09
1.3209e-08
1.01761e-05
-7.15277e-09
1.36781e-08
1.01644e-05
-7.23981e-09
1.41329e-08
1.01523e-05
-7.28484e-09
1.45761e-08
1.01397e-05
-7.29768e-09
1.50117e-08
1.01266e-05
-7.28181e-09
1.54412e-08
1.0113e-05
-7.24513e-09
1.58652e-08
1.0099e-05
-7.19461e-09
1.62874e-08
1.00846e-05
-7.13479e-09
1.671e-08
1.00697e-05
-7.07035e-09
1.71328e-08
1.00544e-05
-7.00458e-09
1.75555e-08
1.00386e-05
-6.94105e-09
1.79788e-08
1.00223e-05
-6.88211e-09
1.84025e-08
1.00057e-05
-6.82873e-09
1.88274e-08
9.98856e-06
-6.783e-09
1.92537e-08
9.97101e-06
-6.74593e-09
1.96798e-08
9.95304e-06
-6.71849e-09
2.01055e-08
9.93464e-06
-6.70089e-09
2.05318e-08
9.91581e-06
-6.69397e-09
2.09577e-08
9.89657e-06
-6.69765e-09
2.13823e-08
9.87692e-06
-6.71283e-09
2.18055e-08
9.85686e-06
-6.73747e-09
2.22263e-08
9.83639e-06
-6.7708e-09
2.26451e-08
9.81553e-06
-6.8157e-09