/*--------------------------------*- C++ -*----------------------------------*\
| =========                 |                                                 |
| \\      /  F ield         | OpenFOAM: The Open Source CFD Toolbox           |
|  \\    /   O peration     | Version:  2.4.0                                 |
|   \\  /    A nd           | Web:      www.OpenFOAM.org                      |
|    \\/     M anipulation  |                                                 |
\*---------------------------------------------------------------------------*/
FoamFile
{
    version     2.0;
    format      ascii;
    class       volScalarField;
    location    "15000/fluid";
    object      rho;
}
// * * * * * * * * * * * * * * * * * * * * * * * * * * * * * * * * * * * * * //

dimensions      [1 -3 0 0 0 0 0];

internalField   nonuniform List<scalar> 
105000
(
395.624
393.009
390.181
387.126
383.821
380.266
376.482
372.478
368.294
363.928
359.435
354.831
350.216
345.644
341.282
337.164
333.332
329.766
326.594
323.769
321.422
319.354
317.671
316.134
314.852
313.594
312.439
311.238
310.083
308.891
307.765
306.663
305.639
304.642
303.671
302.743
301.897
301.058
300.219
299.382
298.532
297.669
296.788
295.893
294.981
294.053
293.11
292.149
291.172
290.178
289.167
288.141
287.098
286.041
284.97
283.884
282.787
281.678
280.557
279.425
278.283
277.133
275.975
274.81
273.638
272.461
271.279
270.093
268.902
267.708
266.509
265.307
264.102
262.893
261.682
260.466
259.248
258.026
256.802
255.574
254.343
253.109
251.872
250.632
249.389
248.143
246.894
245.642
244.388
243.131
241.871
240.609
239.345
238.078
236.809
235.538
234.265
232.99
231.714
230.436
229.157
227.876
226.594
225.312
224.028
222.744
221.459
220.174
218.889
217.605
216.32
215.036
213.753
212.471
211.19
209.911
208.633
207.358
206.084
204.814
203.546
202.281
201.02
199.762
198.508
197.258
196.013
194.772
193.536
192.305
191.079
189.858
188.642
187.432
186.227
185.028
183.834
182.646
181.464
180.287
179.116
177.951
176.791
175.636
174.487
173.343
172.205
171.073
169.946
168.824
167.708
166.598
165.493
164.394
163.302
162.215
161.134
160.06
158.992
157.931
156.877
155.829
154.788
153.754
152.727
151.707
150.695
149.689
148.691
147.7
146.716
145.74
144.771
143.809
142.854
141.907
140.968
140.035
139.11
138.192
137.282
136.379
135.483
134.595
133.714
132.841
131.974
131.116
130.265
129.421
128.585
127.756
126.936
126.122
125.317
124.518
123.728
122.945
122.17
121.403
120.644
119.892
119.148
118.412
117.684
116.963
116.251
115.546
114.85
114.161
113.48
112.806
112.141
111.484
110.834
110.192
109.558
108.932
108.313
107.702
107.099
106.503
105.915
105.334
104.761
104.195
103.637
103.085
102.541
102.004
101.474
100.95
100.434
99.9246
99.4217
98.9255
98.4358
97.9526
97.4757
97.0049
96.5402
96.0819
95.6293
95.1825
94.7418
94.3065
93.8768
93.4528
93.0338
92.6203
92.2118
91.8084
91.4099
91.0163
90.6275
90.2433
89.864
89.489
89.1185
88.7526
88.3909
88.0333
87.68
87.3309
86.9857
86.6442
86.3067
85.9729
85.6429
85.3164
84.9933
84.6737
84.3576
84.0446
83.7349
83.4285
83.1252
82.8249
82.5276
82.2332
81.9416
81.6528
81.3667
81.0833
80.8025
80.5244
80.2487
79.9756
79.7048
79.4365
79.1704
78.9066
78.6451
78.3858
78.1287
77.8737
77.6208
77.3698
77.121
76.8743
76.6295
76.3867
76.1458
75.9068
75.6697
75.4344
75.2011
74.9697
74.7401
74.5123
74.2864
74.0624
73.8404
73.6202
73.4019
73.1722
72.9397
72.7245
72.5252
72.3409
72.1702
72.012
71.8656
71.7299
71.6041
71.4876
71.3792
71.2791
71.1862
71.0998
71.0197
70.9455
70.8766
70.8125
70.753
70.6979
70.6467
70.5991
70.5548
70.5136
70.4754
70.4399
70.4069
70.3763
70.3478
70.3213
70.2967
70.2734
70.2534
70.2252
395.624
393.009
390.181
387.126
383.821
380.267
376.484
372.481
368.298
363.936
359.443
354.845
350.229
345.665
341.299
337.192
333.354
329.798
326.615
323.806
321.444
319.388
317.684
316.159
314.865
313.612
312.45
311.255
310.09
308.901
307.771
306.653
305.619
304.579
303.564
302.592
301.697
300.805
299.917
299.031
298.137
297.234
296.319
295.394
294.456
293.507
292.546
291.571
290.582
289.579
288.561
287.529
286.483
285.422
284.348
283.261
282.161
281.05
279.927
278.793
277.65
276.498
275.339
274.172
272.999
271.82
270.636
269.448
268.255
267.058
265.857
264.653
263.445
262.234
261.02
259.802
258.581
257.357
256.13
254.9
253.666
252.43
251.19
249.948
248.703
247.455
246.204
244.95
243.694
242.435
241.173
239.91
238.644
237.375
236.105
234.833
233.559
232.283
231.005
229.727
228.447
227.165
225.883
224.6
223.316
222.032
220.747
219.462
218.178
216.893
215.609
214.326
213.043
211.762
210.482
209.204
207.928
206.654
205.382
204.113
202.847
201.584
200.325
199.069
197.818
196.571
195.328
194.09
192.857
191.629
190.406
189.188
187.975
186.768
185.566
184.37
183.18
181.995
180.816
179.642
178.474
177.311
176.154
175.003
173.856
172.716
171.58
170.45
169.326
168.207
167.094
165.987
164.885
163.79
162.7
161.617
160.54
159.469
158.405
157.348
156.297
155.253
154.216
153.186
152.163
151.147
150.139
149.138
148.144
147.157
146.178
145.205
144.241
143.283
142.333
141.391
140.455
139.527
138.607
137.693
136.788
135.889
134.998
134.114
133.237
132.369
131.507
130.653
129.806
128.967
128.136
127.312
126.495
125.687
124.885
124.092
123.306
122.528
121.757
120.995
120.24
119.493
118.753
118.022
117.298
116.582
115.874
115.174
114.481
113.797
113.12
112.451
111.79
111.137
110.491
109.854
109.224
108.602
107.987
107.38
106.781
106.189
105.605
105.028
104.459
103.897
103.342
102.794
102.254
101.72
101.193
100.674
100.161
99.6549
99.1555
98.6626
98.1762
97.6963
97.2227
96.7551
96.2936
95.8383
95.3889
94.9451
94.5073
94.075
93.6483
93.227
92.8109
92.4002
91.9945
91.5937
91.198
90.8068
90.4207
90.0391
89.6622
89.2898
88.9218
88.5582
88.199
87.8438
87.4927
87.1459
86.8029
86.4638
86.1284
85.7967
85.4688
85.1444
84.8235
84.506
84.1918
83.8809
83.5732
83.2687
82.9672
82.6688
82.3733
82.0807
81.7909
81.5039
81.2196
80.9379
80.6589
80.3824
80.1083
79.8368
79.5676
79.3008
79.0363
78.7741
78.5142
78.2564
78.0006
77.7471
77.4957
77.2463
76.999
76.7536
76.5101
76.2686
76.029
75.7913
75.5555
75.3216
75.0896
74.8592
74.6309
74.4044
74.1798
73.9569
73.7359
73.5169
73.2999
73.0714
72.8399
72.6258
72.4278
72.2442
72.0744
71.917
71.7713
71.6363
71.5112
71.395
71.2876
71.1878
71.0951
71.0094
70.9298
70.8558
70.7872
70.7235
70.6645
70.6096
70.5585
70.5111
70.4671
70.4262
70.3882
70.353
70.3201
70.2896
70.2612
70.2348
70.2102
70.1871
70.1672
70.1392
395.624
393.009
390.18
387.125
383.821
380.268
376.487
372.486
368.306
363.948
359.459
354.867
350.254
345.701
341.332
337.239
333.39
329.855
326.651
323.869
321.471
319.449
317.696
316.216
314.876
313.656
312.458
311.279
310.094
308.904
307.743
306.607
305.519
304.41
303.299
302.223
301.231
300.246
299.266
298.291
297.316
296.34
295.362
294.381
293.395
292.405
291.408
290.403
289.39
288.367
287.333
286.288
285.23
284.161
283.08
281.987
280.882
279.765
278.638
277.501
276.354
275.199
274.036
272.865
271.689
270.506
269.318
268.126
266.928
265.727
264.522
263.313
262.1
260.884
259.665
258.442
257.216
255.987
254.755
253.52
252.281
251.04
249.796
248.549
247.3
246.047
244.792
243.535
242.275
241.012
239.748
238.481
237.212
235.941
234.668
233.393
232.117
230.839
229.56
228.28
226.999
225.717
224.434
223.15
221.866
220.581
219.297
218.012
216.728
215.444
214.161
212.879
211.599
210.319
209.042
207.766
206.493
205.222
203.954
202.688
201.427
200.168
198.914
197.663
196.417
195.175
193.938
192.706
191.478
190.256
189.039
187.828
186.621
185.42
184.225
183.035
181.851
180.672
179.499
178.331
177.169
176.012
174.861
173.715
172.574
171.439
170.31
169.185
168.067
166.954
165.847
164.746
163.651
162.562
161.479
160.403
159.333
158.27
157.213
156.163
155.12
154.084
153.055
152.033
151.019
150.011
149.011
148.019
147.033
146.055
145.085
144.121
143.165
142.217
141.276
140.342
139.416
138.497
137.585
136.681
135.784
134.894
134.012
133.138
132.27
131.411
130.558
129.713
128.876
128.046
127.224
126.409
125.602
124.802
124.01
123.226
122.449
121.68
120.919
120.166
119.42
118.682
117.952
117.229
116.514
115.807
115.108
114.417
113.733
113.058
112.39
111.729
111.077
110.432
109.795
109.166
108.544
107.931
107.324
106.726
106.134
105.551
104.975
104.406
103.844
103.289
102.742
102.202
101.669
101.143
100.623
100.111
99.6052
99.1062
98.6138
98.1278
97.6481
97.1748
96.7078
96.2468
95.7916
95.3428
94.8995
94.462
94.0303
93.6038
93.1832
92.7676
92.3574
91.9521
91.5521
91.1567
90.7665
90.3808
89.9998
89.6236
89.2517
88.8844
88.5216
88.1629
87.8083
87.4581
87.1119
86.7696
86.4312
86.0966
85.7657
85.4386
85.115
84.7948
84.4781
84.1647
83.8546
83.5477
83.2439
82.9433
82.6458
82.3512
82.0595
81.7706
81.4845
81.2011
80.9204
80.6422
80.3666
80.0935
79.8229
79.5547
79.2888
79.0252
78.7639
78.5048
78.248
77.9932
77.7405
77.4898
77.2414
76.9949
76.7504
76.5078
76.2671
76.0284
75.7915
75.5564
75.3233
75.092
74.8624
74.6346
74.4088
74.1848
73.9625
73.742
73.5234
73.3068
73.0919
72.8658
72.6367
72.4249
72.2288
72.0472
71.8792
71.7234
71.5792
71.4454
71.3217
71.2068
71.1002
71.0016
70.91
70.8249
70.7462
70.6731
70.6052
70.5421
70.4835
70.4293
70.3788
70.3319
70.2883
70.2478
70.2102
70.1753
70.1428
70.1127
70.0846
70.0585
70.0343
70.0114
69.9917
69.9639
395.624
393.009
390.18
387.125
383.822
380.27
376.492
372.493
368.32
363.964
359.486
354.898
350.298
345.749
341.391
337.302
333.458
329.927
326.72
323.93
321.529
319.539
317.745
316.298
314.903
313.702
312.464
311.271
310.056
308.849
307.64
306.439
305.245
304.023
302.756
301.53
300.397
299.28
298.175
297.081
295.999
294.926
293.86
292.801
291.746
290.695
289.645
288.594
287.541
286.485
285.422
284.353
283.276
282.19
281.095
279.99
278.876
277.751
276.616
275.472
274.319
273.158
271.989
270.813
269.63
268.442
267.248
266.049
264.845
263.637
262.425
261.209
259.989
258.766
257.539
256.309
255.076
253.84
252.601
251.359
250.114
248.866
247.616
246.363
245.107
243.849
242.589
241.326
240.061
238.794
237.525
236.254
234.981
233.707
232.431
231.154
229.875
228.595
227.314
226.033
224.75
223.467
222.184
220.9
219.616
218.332
217.048
215.765
214.482
213.201
211.92
210.642
209.364
208.089
206.816
205.545
204.277
203.011
201.749
200.491
199.236
197.985
196.738
195.496
194.258
193.025
191.797
190.574
189.356
188.144
186.936
185.734
184.538
183.346
182.16
180.98
179.805
178.635
177.471
176.312
175.159
174.011
172.868
171.731
170.599
169.473
168.352
167.237
166.128
165.025
163.927
162.836
161.752
160.673
159.602
158.536
157.478
156.426
155.381
154.344
153.313
152.29
151.274
150.265
149.263
148.269
147.283
146.303
145.331
144.367
143.41
142.46
141.518
140.583
139.656
138.736
137.823
136.918
136.02
135.13
134.247
133.372
132.504
131.643
130.79
129.944
129.106
128.275
127.452
126.636
125.828
125.028
124.235
123.45
122.672
121.902
121.139
120.384
119.637
118.898
118.166
117.442
116.726
116.017
115.316
114.623
113.938
113.26
112.59
111.928
111.273
110.626
109.987
109.356
108.732
108.115
107.507
106.905
106.312
105.726
105.147
104.575
104.011
103.454
102.904
102.362
101.826
101.297
100.776
100.261
99.7525
99.251
98.7561
98.2676
97.7859
97.3105
96.8412
96.378
95.9211
95.4701
95.0247
94.5855
94.1519
93.7237
93.3013
92.8841
92.4725
92.0657
91.6643
91.2677
90.8761
90.4894
90.1072
89.73
89.3571
88.9887
88.625
88.2654
87.9101
87.559
87.2121
86.8692
86.5301
86.1949
85.8637
85.5361
85.2121
84.8916
84.5746
84.261
83.9507
83.6437
83.3399
83.0392
82.7415
82.4469
82.1553
81.8665
81.5805
81.2973
81.0168
80.7389
80.4636
80.1908
79.9205
79.6526
79.387
79.1238
78.8629
78.6043
78.3479
78.0935
77.8413
77.5912
77.3432
77.0971
76.853
76.6108
76.3705
76.1323
75.8958
75.6612
75.4284
75.1974
74.9681
74.7407
74.5151
74.2912
74.069
73.8486
73.63
73.4132
73.1981
72.9848
72.7735
72.5511
72.3256
72.1171
71.9241
71.7453
71.5799
71.4266
71.2847
71.153
71.0312
70.918
70.8132
70.7161
70.6259
70.5422
70.4648
70.3927
70.3258
70.2637
70.2062
70.1528
70.1031
70.057
70.014
69.9742
69.9372
69.9029
69.871
69.8413
69.8137
69.788
69.7641
69.7416
69.7222
69.6949
395.624
393.008
390.179
387.124
383.823
380.272
376.498
372.502
368.335
363.987
359.52
354.94
350.357
345.814
341.478
337.386
333.565
330.027
326.826
324.041
321.639
319.625
317.845
316.355
314.964
313.7
312.435
311.2
309.922
308.647
307.334
306.011
304.645
303.236
301.756
300.338
299.026
297.741
296.483
295.249
294.038
292.845
291.671
290.513
289.37
288.239
287.118
286.005
284.898
283.794
282.69
281.586
280.479
279.368
278.251
277.128
275.997
274.859
273.712
272.558
271.395
270.225
269.047
267.862
266.671
265.474
264.272
263.065
261.852
260.636
259.415
258.19
256.962
255.73
254.495
253.256
252.015
250.77
249.523
248.273
247.02
245.765
244.507
243.247
241.985
240.721
239.454
238.186
236.916
235.644
234.371
233.096
231.819
230.542
229.263
227.984
226.703
225.422
224.14
222.858
221.575
220.293
219.01
217.728
216.445
215.164
213.883
212.603
211.325
210.048
208.773
207.5
206.23
204.961
203.696
202.434
201.175
199.919
198.667
197.419
196.176
194.937
193.702
192.472
191.247
190.027
188.812
187.603
186.398
185.199
184.005
182.816
181.632
180.454
179.281
178.113
176.95
175.793
174.641
173.495
172.354
171.218
170.088
168.963
167.844
166.731
165.624
164.523
163.428
162.339
161.257
160.181
159.112
158.05
156.995
155.947
154.905
153.871
152.844
151.824
150.812
149.807
148.81
147.82
146.837
145.862
144.894
143.934
142.981
142.036
141.098
140.168
139.245
138.33
137.422
136.522
135.629
134.743
133.866
132.995
132.132
131.277
130.428
129.588
128.754
127.929
127.111
126.3
125.497
124.701
123.913
123.133
122.36
121.595
120.837
120.086
119.344
118.609
117.882
117.162
116.45
115.745
115.048
114.359
113.678
113.003
112.337
111.678
111.027
110.383
109.747
109.119
108.498
107.884
107.278
106.68
106.089
105.505
104.929
104.36
103.798
103.243
102.695
102.155
101.621
101.095
100.575
100.062
99.556
99.0565
98.5635
98.077
97.597
97.1234
96.6561
96.1947
95.7397
95.2906
94.8472
94.4099
93.9781
93.5519
93.1314
92.7161
92.3064
91.9016
91.5022
91.1076
90.7181
90.3335
89.9534
89.5783
89.2076
88.8413
88.4797
88.1224
87.7692
87.4202
87.0755
86.7348
86.398
86.065
85.7358
85.4105
85.0888
84.7706
84.4559
84.1446
83.8366
83.5319
83.2304
82.9321
82.6368
82.3445
82.0551
81.7687
81.4851
81.2042
80.926
80.6504
80.3774
80.1069
79.8389
79.5734
79.3102
79.0493
78.7908
78.5345
78.2803
78.0282
77.7783
77.5304
77.2846
77.0407
76.7988
76.5588
76.3208
76.0845
75.85
75.6174
75.3867
75.1577
74.9303
74.7047
74.4808
74.2587
74.0383
73.8194
73.6023
73.3869
73.1733
72.9612
72.7509
72.5425
72.3357
72.1181
71.8976
71.6937
71.5047
71.3299
71.168
71.0179
70.8791
70.7503
70.6309
70.5204
70.4177
70.3226
70.2345
70.1527
70.0767
70.0063
69.941
69.8803
69.8239
69.7716
69.723
69.6779
69.6361
69.5972
69.561
69.5273
69.496
69.467
69.44
69.4149
69.3916
69.3697
69.3508
69.3242
395.624
393.006
390.177
387.123
383.824
380.278
376.507
372.522
368.357
364.032
359.564
355.021
350.43
345.936
341.581
337.545
333.716
330.221
327.058
324.27
321.899
319.852
318.045
316.47
315.017
313.658
312.304
310.963
309.554
308.115
306.598
305.049
303.411
301.735
299.975
298.314
296.789
295.309
293.875
292.478
291.117
289.787
288.487
287.214
285.966
284.74
283.533
282.343
281.167
280.002
278.845
277.694
276.546
275.4
274.253
273.103
271.95
270.793
269.629
268.46
267.284
266.102
264.913
263.718
262.516
261.31
260.098
258.88
257.659
256.433
255.202
253.968
252.731
251.49
250.246
248.998
247.748
246.496
245.24
243.983
242.723
241.46
240.196
238.93
237.662
236.393
235.122
233.849
232.575
231.3
230.024
228.747
227.469
226.191
224.911
223.632
222.352
221.072
219.792
218.512
217.232
215.953
214.675
213.398
212.122
210.847
209.573
208.302
207.033
205.766
204.501
203.239
201.981
200.726
199.474
198.226
196.982
195.743
194.507
193.276
192.05
190.828
189.612
188.4
187.193
185.991
184.795
183.603
182.417
181.235
180.059
178.888
177.721
176.56
175.405
174.254
173.109
171.969
170.835
169.706
168.583
167.466
166.355
165.249
164.15
163.057
161.971
160.891
159.818
158.752
157.693
156.64
155.595
154.557
153.526
152.503
151.487
150.478
149.477
148.483
147.496
146.518
145.546
144.583
143.627
142.678
141.737
140.804
139.878
138.96
138.049
137.146
136.25
135.362
134.481
133.608
132.743
131.885
131.034
130.191
129.356
128.527
127.707
126.894
126.088
125.29
124.499
123.716
122.94
122.172
121.411
120.658
119.912
119.174
118.443
117.72
117.005
116.296
115.595
114.902
114.216
113.538
112.867
112.204
111.548
110.899
110.258
109.624
108.998
108.379
107.768
107.163
106.567
105.977
105.395
104.819
104.251
103.691
103.137
102.591
102.051
101.518
100.992
100.473
99.961
99.4554
98.9565
98.464
97.9782
97.4988
97.0257
96.5587
96.0979
95.6434
95.1948
94.7521
94.3154
93.8841
93.4589
93.0389
92.6246
92.2155
91.8118
91.4131
91.0197
90.631
90.2475
89.8687
89.4945
89.1252
88.7604
88.3999
88.044
87.6924
87.3448
87.0016
86.6624
86.3272
85.9959
85.6683
85.3446
85.0244
84.7081
84.3953
84.0858
83.7798
83.477
83.1775
82.8811
82.5879
82.2976
82.0103
81.726
81.4444
81.1656
80.8896
80.6163
80.3455
80.0772
79.8115
79.5482
79.2873
79.0287
78.7724
78.5182
78.2664
78.0167
77.7691
77.5236
77.28
77.0384
76.7987
76.561
76.3251
76.0911
75.8589
75.6284
75.3996
75.1727
74.9475
74.7239
74.5019
74.2816
74.0629
73.846
73.6305
73.4165
73.2044
72.9938
72.7847
72.5773
72.3715
72.1673
71.9647
71.764
71.5527
71.3384
71.1402
70.9568
70.7867
70.6295
70.4836
70.3487
70.2235
70.1076
70.0001
69.9003
69.808
69.7224
69.6428
69.569
69.5006
69.4372
69.3783
69.3235
69.2727
69.2255
69.1818
69.1412
69.1035
69.0684
69.0357
69.0054
68.9772
68.951
68.9267
68.9041
68.8828
68.8645
68.8388
395.623
393.004
390.176
387.119
383.825
380.276
376.516
372.528
368.384
364.063
359.631
355.086
350.555
346.07
341.806
337.793
334.058
330.624
327.517
324.747
322.313
320.19
318.283
316.565
314.945
313.381
311.796
310.175
308.466
306.69
304.823
302.908
300.909
298.883
296.788
294.834
293.066
291.365
289.73
288.15
286.621
285.136
283.695
282.293
280.926
279.592
278.286
277.007
275.75
274.511
273.289
272.079
270.88
269.688
268.502
267.319
266.137
264.954
263.769
262.581
261.388
260.19
258.986
257.777
256.563
255.343
254.119
252.891
251.658
250.421
249.18
247.936
246.689
245.439
244.185
242.93
241.671
240.411
239.148
237.884
236.618
235.35
234.081
232.81
231.539
230.266
228.993
227.718
226.443
225.168
223.892
222.616
221.34
220.064
218.789
217.513
216.239
214.965
213.692
212.42
211.15
209.881
208.614
207.349
206.086
204.825
203.567
202.313
201.061
199.813
198.568
197.327
196.09
194.858
193.629
192.405
191.186
189.971
188.76
187.555
186.354
185.158
183.967
182.781
181.6
180.424
179.253
178.087
176.926
175.77
174.619
173.473
172.333
171.198
170.069
168.946
167.828
166.716
165.611
164.511
163.418
162.332
161.252
160.178
159.112
158.052
157
155.955
154.916
153.886
152.862
151.846
150.837
149.836
148.843
147.857
146.879
145.908
144.944
143.989
143.041
142.1
141.168
140.242
139.325
138.415
137.513
136.618
135.731
134.852
133.98
133.116
132.259
131.409
130.568
129.734
128.907
128.088
127.276
126.472
125.675
124.886
124.104
123.33
122.563
121.803
121.051
120.306
119.568
118.838
118.115
117.399
116.691
115.99
115.296
114.61
113.931
113.259
112.594
111.936
111.286
110.643
110.007
109.378
108.757
108.142
107.535
106.935
106.342
105.756
105.177
104.605
104.039
103.481
102.93
102.386
101.848
101.318
100.794
100.277
99.7664
99.2625
98.7651
98.2742
97.7896
97.3115
96.8397
96.3741
95.9145
95.4612
95.0138
94.5722
94.1365
93.7067
93.2823
92.8638
92.4505
92.043
91.6404
91.2434
90.8512
90.4642
90.0822
89.7048
89.3326
88.9649
88.6017
88.2432
87.8892
87.5395
87.194
86.8529
86.5159
86.1828
85.8536
85.5284
85.207
84.8893
84.5753
84.2649
83.9579
83.6544
83.3542
83.0573
82.7636
82.4731
82.1856
81.9012
81.6196
81.341
81.0651
80.792
80.5216
80.2537
79.9884
79.7258
79.4657
79.2079
78.9525
78.6992
78.4483
78.1996
77.9531
77.7086
77.4662
77.2256
76.9873
76.7509
76.5163
76.2836
76.0527
75.8236
75.5961
75.3706
75.1466
74.9243
74.7034
74.4846
74.2671
74.0512
73.8368
73.624
73.4128
73.2029
72.9945
72.7878
72.5825
72.3785
72.1763
71.9755
71.776
71.5782
71.382
71.1871
70.994
70.7908
70.5846
70.3939
70.2174
70.0538
69.9025
69.762
69.6322
69.5118
69.4002
69.2969
69.201
69.1119
69.0297
68.9533
68.8824
68.8165
68.7555
68.699
68.6465
68.5976
68.5523
68.5102
68.4712
68.435
68.4014
68.3701
68.3411
68.3141
68.289
68.2657
68.244
68.2235
68.2059
68.1813
395.623
393.002
390.173
387.121
383.822
380.283
376.499
372.531
368.35
364.025
359.545
355.031
350.501
346.119
341.96
338.087
334.454
331.074
327.942
325.057
322.396
319.95
317.666
315.497
313.394
311.316
309.215
307.088
304.855
302.543
300.163
297.754
295.305
292.851
290.37
288.085
286.043
284.095
282.234
280.45
278.734
277.08
275.484
273.939
272.442
270.99
269.576
268.198
266.851
265.531
264.236
262.961
261.703
260.459
259.226
258.001
256.781
255.565
254.349
253.134
251.916
250.696
249.474
248.247
247.017
245.784
244.547
243.306
242.062
240.815
239.565
238.312
237.057
235.8
234.541
233.28
232.017
230.754
229.489
228.223
226.956
225.689
224.421
223.153
221.885
220.617
219.349
218.081
216.815
215.549
214.284
213.02
211.758
210.497
209.238
207.981
206.726
205.473
204.224
202.977
201.733
200.492
199.255
198.021
196.791
195.565
194.343
193.125
191.912
190.702
189.498
188.298
187.103
185.912
184.726
183.545
182.369
181.198
180.031
178.87
177.714
176.562
175.416
174.275
173.139
172.009
170.884
169.765
168.652
167.544
166.442
165.347
164.257
163.174
162.097
161.027
159.964
158.907
157.858
156.815
155.78
154.751
153.73
152.716
151.71
150.711
149.719
148.735
147.759
146.79
145.828
144.874
143.928
142.989
142.058
141.135
140.219
139.311
138.41
137.517
136.632
135.754
134.883
134.021
133.166
132.318
131.478
130.645
129.82
129.003
128.192
127.39
126.594
125.806
125.026
124.252
123.486
122.727
121.976
121.231
120.494
119.764
119.041
118.325
117.616
116.914
116.219
115.531
114.85
114.176
113.509
112.848
112.195
111.548
110.908
110.275
109.649
109.029
108.417
107.81
107.211
106.618
106.032
105.453
104.88
104.314
103.755
103.202
102.655
102.115
101.582
101.055
100.535
100.021
99.513
99.0117
98.5167
98.028
97.5457
97.0696
96.5995
96.1354
95.6774
95.2254
94.7792
94.3389
93.9045
93.4755
93.0526
92.6349
92.2229
91.8161
91.4147
91.0184
90.6276
90.2416
89.8609
89.4851
89.114
88.7479
88.3863
88.0293
87.677
87.3291
86.9855
86.6462
86.3112
85.9803
85.6535
85.3306
85.0116
84.6963
84.3849
84.0771
83.7729
83.4721
83.1748
82.8809
82.5902
82.3028
82.0185
81.7373
81.459
81.1838
80.9115
80.6419
80.3751
80.111
79.8496
79.5907
79.3343
79.0803
78.8287
78.5796
78.3327
78.0881
77.8456
77.6053
77.367
77.1308
76.8966
76.6644
76.4341
76.2056
75.9789
75.7539
75.5309
75.3096
75.0899
74.8717
74.6553
74.4405
74.2271
74.0153
73.8049
73.5962
73.3887
73.1826
72.9782
72.775
72.5731
72.3727
72.1737
71.9759
71.7795
71.5845
71.3906
71.1982
71.0073
70.8174
70.6291
70.4422
70.2566
70.0726
69.8898
69.6976
69.5028
69.3222
69.1553
69.0005
68.8574
68.7246
68.6019
68.4879
68.3825
68.2849
68.1942
68.1101
68.0325
67.9604
67.8935
67.8313
67.7738
67.7205
67.6711
67.6252
67.5825
67.5429
67.5062
67.4721
67.4405
67.4112
67.384
67.3587
67.3351
67.3133
67.293
67.2739
67.2574
67.2345
395.621
392.987
390.119
387.018
383.623
379.944
375.981
371.762
367.331
362.744
358.054
353.368
348.711
344.166
339.687
335.313
331.08
326.994
323.108
319.415
315.951
312.7
309.652
306.761
303.988
301.288
298.608
295.932
293.227
290.487
287.703
284.902
282.078
279.248
276.405
273.786
271.459
269.246
267.14
265.129
263.203
261.352
259.573
257.861
256.209
254.613
253.069
251.57
250.114
248.695
247.309
245.953
244.622
243.312
242.02
240.741
239.472
238.211
236.955
235.702
234.45
233.198
231.945
230.691
229.435
228.177
226.916
225.654
224.389
223.123
221.856
220.589
219.32
218.052
216.783
215.515
214.248
212.981
211.716
210.453
209.192
207.933
206.677
205.423
204.173
202.926
201.683
200.444
199.208
197.977
196.751
195.529
194.312
193.1
191.893
190.691
189.495
188.303
187.117
185.937
184.762
183.593
182.429
181.27
180.117
178.97
177.828
176.691
175.561
174.436
173.316
172.203
171.095
169.993
168.897
167.807
166.724
165.646
164.575
163.51
162.452
161.4
160.355
159.317
158.286
157.261
156.244
155.234
154.231
153.235
152.246
151.265
150.29
149.324
148.364
147.412
146.467
145.53
144.6
143.678
142.763
141.855
140.955
140.063
139.178
138.3
137.43
136.567
135.711
134.863
134.022
133.189
132.363
131.544
130.733
129.929
129.132
128.342
127.56
126.784
126.016
125.255
124.501
123.753
123.013
122.28
121.554
120.834
120.122
119.416
118.717
118.024
117.338
116.659
115.986
115.32
114.66
114.006
113.359
112.718
112.083
111.455
110.832
110.216
109.606
109.002
108.403
107.811
107.225
106.645
106.07
105.501
104.939
104.382
103.831
103.285
102.746
102.212
101.684
101.162
100.645
100.134
99.6287
99.1291
98.635
98.1468
97.6643
97.1873
96.7159
96.2499
95.7896
95.3349
94.8856
94.4418
94.0037
93.5708
93.1434
92.7215
92.3048
91.8936
91.4874
91.0866
90.6908
90.3003
89.9148
89.5341
89.1587
88.7878
88.422
88.0609
87.7044
87.3525
87.0054
86.6626
86.3242
85.9901
85.6604
85.3349
85.0134
84.696
84.3825
84.073
83.7673
83.4654
83.1671
82.8724
82.5813
82.2937
82.0094
81.7285
81.4508
81.1763
80.9049
80.6365
80.3711
80.1086
79.849
79.5921
79.3379
79.0864
78.8374
78.5911
78.3473
78.1059
77.8669
77.6301
77.3955
77.1633
76.9331
76.705
76.4791
76.2551
76.033
75.8128
75.5946
75.3782
75.1635
74.9505
74.7393
74.5297
74.3217
74.1152
73.9104
73.707
73.505
73.3046
73.1056
72.9078
72.7114
72.5165
72.3226
72.1301
71.939
71.7489
71.56
71.3725
71.1858
71.0006
70.8164
70.6332
70.4514
70.2705
70.0907
69.9122
69.7344
69.5581
69.3827
69.2085
69.0354
68.8634
68.6927
68.523
68.3548
68.1876
68.0218
67.8473
67.6703
67.5066
67.3548
67.2146
67.0846
66.9642
66.853
66.7498
66.6543
66.566
66.4842
66.4082
66.338
66.273
66.2128
66.157
66.1052
66.0572
66.0128
65.9717
65.9336
65.8983
65.8655
65.8351
65.8069
65.7807
65.7564
65.7339
65.713
65.6937
65.6757
65.6589
65.6443
65.6244
394.597
389.85
384.773
379.393
373.741
367.891
361.911
355.883
349.834
343.791
337.754
331.751
325.772
319.87
314.058
308.408
302.967
297.729
292.766
288.037
283.605
279.418
275.497
271.769
268.211
264.757
261.38
258.046
254.731
251.409
248.078
244.732
241.373
237.98
234.564
231.425
228.628
225.972
223.45
221.052
218.766
216.586
214.508
212.523
210.624
208.809
207.068
205.398
203.792
202.245
200.751
199.307
197.905
196.541
195.21
193.904
192.62
191.354
190.102
188.862
187.632
186.411
185.197
183.99
182.79
181.597
180.41
179.23
178.058
176.893
175.736
174.587
173.446
172.314
171.19
170.075
168.97
167.874
166.787
165.709
164.64
163.581
162.531
161.491
160.46
159.438
158.425
157.422
156.428
155.443
154.468
153.502
152.545
151.597
150.658
149.728
148.808
147.896
146.993
146.099
145.214
144.337
143.469
142.609
141.757
140.914
140.078
139.25
138.431
137.619
136.814
136.017
135.227
134.445
133.669
132.901
132.139
131.384
130.637
129.896
129.161
128.434
127.712
126.998
126.289
125.588
124.892
124.203
123.52
122.843
122.173
121.509
120.85
120.198
119.552
118.911
118.277
117.648
117.026
116.409
115.797
115.192
114.592
113.997
113.409
112.825
112.247
111.674
111.107
110.545
109.988
109.436
108.889
108.348
107.811
107.279
106.752
106.23
105.713
105.2
104.692
104.188
103.689
103.194
102.704
102.219
101.737
101.26
100.786
100.317
99.8523
99.3914
98.9343
98.4811
98.032
97.5865
97.1447
96.7069
96.2728
95.8421
95.4154
94.992
94.5723
94.1562
93.7435
93.3346
92.9289
92.527
92.1283
91.7335
91.3418
90.954
90.5694
90.1884
89.811
89.4369
89.0667
88.6998
88.3364
87.9769
87.6207
87.2682
86.9194
86.5741
86.2324
85.8945
85.5603
85.2297
84.9027
84.5794
84.2598
83.944
83.6318
83.3233
83.0184
82.7172
82.4196
82.1256
81.8352
81.5484
81.2652
80.9856
80.7093
80.4366
80.1672
79.9012
79.6385
79.3791
79.123
78.87
78.6202
78.3733
78.1296
77.8889
77.6512
77.4163
77.1842
76.9548
76.728
76.5041
76.2826
76.0638
75.8474
75.6334
75.4218
75.2126
75.0056
74.8007
74.598
74.3976
74.1992
74.0025
73.8081
73.6155
73.4245
73.2355
73.0484
72.8627
72.6788
72.4966
72.3158
72.1367
71.959
71.7826
71.608
71.4344
71.2623
71.0915
70.9218
70.7535
70.5862
70.4202
70.2554
70.0914
69.9288
69.7668
69.6063
69.4463
69.2877
69.1296
68.9727
68.8164
68.6611
68.5066
68.3529
68.1999
68.0477
67.8963
67.7455
67.5956
67.4462
67.2976
67.1496
67.0023
66.8556
66.7095
66.5642
66.4194
66.2754
66.1317
65.989
65.8466
65.7053
65.5642
65.4241
65.2845
65.1457
65.0076
64.8702
64.7338
64.5979
64.4632
64.3292
64.1963
64.0645
63.9255
63.7851
63.6549
63.5347
63.4236
63.3208
63.226
63.1385
63.0575
62.9827
62.9136
62.8501
62.7914
62.7372
62.687
62.6408
62.598
62.5587
62.5226
62.4892
62.4584
62.43
62.4037
62.3796
62.3573
62.3367
62.3178
62.3003
62.2842
62.2693
62.2557
62.2429
62.2313
62.2208
62.2078
396.873
396.827
396.756
396.645
396.481
396.233
395.872
395.368
394.701
393.858
392.831
391.611
390.198
388.584
386.78
384.785
382.662
380.405
378.076
375.66
373.249
370.789
368.396
365.993
363.707
361.438
359.298
357.201
355.235
353.353
351.623
349.992
348.447
346.913
345.393
343.973
342.705
341.481
340.286
339.112
337.945
336.786
335.632
334.485
333.34
332.197
331.054
329.909
328.764
327.617
326.468
325.317
324.164
323.008
321.85
320.69
319.528
318.364
317.199
316.032
314.864
313.694
312.524
311.352
310.179
309.005
307.83
306.655
305.479
304.302
303.125
301.946
300.767
299.586
298.405
297.222
296.039
294.854
293.667
292.479
291.29
290.099
288.906
287.712
286.515
285.317
284.117
282.914
281.71
280.503
279.294
278.083
276.87
275.654
274.436
273.215
271.991
270.766
269.537
268.306
267.073
265.837
264.598
263.356
262.112
260.866
259.616
258.364
257.11
255.852
254.593
253.33
252.066
250.798
249.529
248.257
246.982
245.705
244.426
243.145
241.862
240.577
239.289
238
236.709
235.416
234.121
232.825
231.528
230.229
228.929
227.628
226.325
225.022
223.719
222.415
221.11
219.806
218.502
217.198
215.895
214.593
213.291
211.991
210.692
209.396
208.101
206.808
205.518
204.23
202.945
201.663
200.385
199.109
197.838
196.57
195.306
194.046
192.79
191.539
190.292
189.05
187.813
186.581
185.354
184.132
182.916
181.705
180.5
179.3
178.107
176.92
175.738
174.564
173.395
172.233
171.078
169.93
168.788
167.654
166.526
165.406
164.293
163.188
162.09
161
159.917
158.843
157.776
156.717
155.666
154.623
153.588
152.562