/*--------------------------------*- C++ -*----------------------------------*\
| =========                 |                                                 |
| \\      /  F ield         | OpenFOAM: The Open Source CFD Toolbox           |
|  \\    /   O peration     | Version:  2.4.0                                 |
|   \\  /    A nd           | Web:      www.OpenFOAM.org                      |
|    \\/     M anipulation  |                                                 |
\*---------------------------------------------------------------------------*/
FoamFile
{
    version     2.0;
    format      ascii;
    class       volScalarField;
    location    "15000/fluid";
    object      T;
}
// * * * * * * * * * * * * * * * * * * * * * * * * * * * * * * * * * * * * * //

dimensions      [0 0 0 1 0 0 0];

internalField   nonuniform List<scalar> 
105000
(
137.962
139.737
141.638
143.667
145.834
148.132
150.541
153.046
155.616
158.244
160.892
163.544
166.14
168.651
170.989
173.144
175.105
176.891
178.448
179.81
180.923
181.891
182.669
183.373
183.953
184.519
185.034
185.566
186.073
186.592
187.079
187.552
187.988
188.409
188.816
189.203
189.554
189.9
190.243
190.584
190.928
191.276
191.629
191.986
192.347
192.712
193.082
193.455
193.833
194.214
194.599
194.988
195.38
195.776
196.173
196.573
196.974
197.377
197.781
198.186
198.591
198.996
199.401
199.806
200.209
200.612
201.013
201.412
201.81
202.206
202.601
202.993
203.384
203.773
204.16
204.546
204.929
205.311
205.691
206.069
206.446
206.821
207.194
207.566
207.936
208.304
208.671
209.037
209.401
209.763
210.124
210.484
210.842
211.199
211.554
211.909
212.262
212.613
212.964
213.313
213.661
214.008
214.354
214.699
215.043
215.386
215.728
216.068
216.409
216.748
217.086
217.424
217.761
218.098
218.434
218.769
219.104
219.439
219.773
220.107
220.44
220.774
221.107
221.44
221.773
222.106
222.439
222.772
223.105
223.439
223.772
224.106
224.44
224.775
225.11
225.446
225.782
226.12
226.458
226.797
227.137
227.478
227.821
228.164
228.51
228.857
229.205
229.555
229.907
230.261
230.617
230.975
231.335
231.698
232.062
232.429
232.798
233.17
233.543
233.92
234.299
234.68
235.064
235.451
235.841
236.233
236.628
237.026
237.427
237.83
238.237
238.647
239.06
239.476
239.895
240.317
240.743
241.172
241.604
242.04
242.479
242.922
243.368
243.817
244.27
244.727
245.187
245.65
246.117
246.588
247.062
247.539
248.02
248.505
248.992
249.483
249.978
250.475
250.976
251.479
251.986
252.496
253.008
253.524
254.042
254.562
255.086
255.611
256.139
256.67
257.202
257.737
258.273
258.811
259.351
259.893
260.435
260.98
261.525
262.072
262.619
263.168
263.717
264.267
264.818
265.369
265.92
266.472
267.024
267.576
268.128
268.679
269.231
269.782
270.333
270.884
271.433
271.983
272.531
273.079
273.626
274.173
274.718
275.262
275.806
276.348
276.889
277.429
277.969
278.506
279.043
279.579
280.113
280.647
281.179
281.71
282.239
282.767
283.294
283.819
284.343
284.865
285.386
285.906
286.424
286.941
287.456
287.97
288.482
288.994
289.503
290.012
290.519
291.024
291.529
292.032
292.533
293.034
293.533
294.031
294.527
295.023
295.517
296.01
296.502
296.992
297.482
297.97
298.457
298.943
299.429
299.912
300.395
300.877
301.358
301.838
302.317
302.794
303.271
303.746
304.221
304.694
305.166
305.637
306.107
306.576
307.043
307.51
307.974
308.438
308.9
309.36
309.818
310.275
310.73
311.21
311.699
312.154
312.576
312.968
313.332
313.67
313.984
314.275
314.545
314.796
315.029
315.246
315.447
315.633
315.806
315.967
316.116
316.254
316.382
316.502
316.613
316.715
316.811
316.9
316.982
317.058
317.13
317.196
317.257
317.314
317.367
317.417
317.459
317.525
137.962
139.737
141.638
143.667
145.834
148.132
150.54
153.044
155.613
158.239
160.887
163.536
166.133
168.639
170.98
173.13
175.094
176.875
178.437
179.792
180.912
181.875
182.663
183.361
183.948
184.511
185.03
185.559
186.07
186.588
187.077
187.556
187.996
188.436
188.862
189.267
189.637
190.004
190.368
190.728
191.09
191.453
191.818
192.186
192.556
192.928
193.303
193.681
194.061
194.445
194.831
195.221
195.613
196.008
196.404
196.803
197.204
197.606
198.009
198.412
198.817
199.221
199.625
200.028
200.431
200.832
201.232
201.631
202.027
202.423
202.816
203.208
203.598
203.987
204.373
204.758
205.141
205.522
205.901
206.279
206.655
207.029
207.401
207.772
208.142
208.51
208.876
209.241
209.604
209.966
210.326
210.685
211.043
211.399
211.754
212.108
212.46
212.811
213.161
213.51
213.858
214.204
214.549
214.894
215.237
215.579
215.921
216.261
216.601
216.94
217.278
217.615
217.952
218.288
218.624
218.959
219.294
219.628
219.962
220.296
220.629
220.963
221.296
221.629
221.962
222.295
222.628
222.961
223.294
223.628
223.962
224.296
224.63
224.965
225.301
225.637
225.974
226.312
226.65
226.99
227.331
227.673
228.016
228.361
228.707
229.055
229.405
229.756
230.109
230.465
230.822
231.181
231.543
231.906
232.272
232.64
233.011
233.384
233.759
234.137
234.518
234.901
235.286
235.675
236.066
236.46
236.856
237.256
237.658
238.064
238.472
238.883
239.298
239.716
240.137
240.561
240.988
241.419
241.853
242.29
242.731
243.176
243.624
244.075
244.53
244.988
245.45
245.915
246.384
246.856
247.332
247.811
248.294
248.78
249.269
249.762
250.258
250.757
251.259
251.764
252.273
252.784
253.298
253.815
254.334
254.856
255.381
255.908
256.437
256.969
257.503
258.038
258.576
259.115
259.656
260.198
260.742
261.287
261.834
262.381
262.929
263.479
264.029
264.579
265.131
265.682
266.234
266.786
267.339
267.891
268.443
268.995
269.547
270.099
270.65
271.2
271.75
272.3
272.848
273.396
273.943
274.49
275.035
275.579
276.123
276.665
277.206
277.746
278.284
278.822
279.359
279.894
280.428
280.961
281.493
282.023
282.552
283.079
283.606
284.13
284.654
285.176
285.696
286.215
286.732
287.248
287.763
288.276
288.788
289.298
289.807
290.315
290.821
291.326
291.83
292.332
292.833
293.332
293.83
294.327
294.823
295.318
295.811
296.303
296.794
297.284
297.772
298.26
298.746
299.231
299.715
300.198
300.68
301.161
301.641
302.12
302.597
303.074
303.55
304.024
304.497
304.97
305.441
305.911
306.38
306.848
307.314
307.779
308.243
308.705
309.166
309.625
310.083
310.538
310.992
311.471
311.959
312.413
312.834
313.225
313.588
313.925
314.238
314.529
314.798
315.049
315.281
315.497
315.697
315.883
316.056
316.216
316.365
316.503
316.631
316.75
316.86
316.963
317.058
317.146
317.228
317.305
317.376
317.441
317.502
317.559
317.612
317.662
317.704
317.77
137.963
139.738
141.638
143.667
145.834
148.131
150.538
153.041
155.608
158.232
160.878
163.523
166.119
168.62
170.962
173.105
175.076
176.847
178.42
179.763
180.898
181.846
182.658
183.335
183.943
184.491
185.026
185.548
186.068
186.587
187.089
187.576
188.039
188.507
188.973
189.421
189.831
190.235
190.635
191.03
191.422
191.813
192.201
192.589
192.975
193.361
193.747
194.134
194.521
194.909
195.299
195.69
196.083
196.477
196.873
197.271
197.67
198.071
198.472
198.874
199.276
199.678
200.08
200.481
200.881
201.28
201.678
202.075
202.47
202.864
203.256
203.646
204.035
204.421
204.806
205.189
205.571
205.951
206.329
206.705
207.079
207.452
207.824
208.193
208.561
208.928
209.293
209.656
210.018
210.379
210.738
211.096
211.452
211.807
212.161
212.513
212.864
213.214
213.563
213.91
214.257
214.602
214.946
215.289
215.632
215.973
216.313
216.653
216.992
217.33
217.667
218.004
218.34
218.676
219.011
219.346
219.68
220.014
220.348
220.681
221.014
221.347
221.68
222.013
222.346
222.68
223.013
223.346
223.68
224.014
224.348
224.683
225.018
225.354
225.69
226.027
226.365
226.704
227.044
227.386
227.728
228.072
228.417
228.764
229.112
229.462
229.814
230.168
230.524
230.882
231.242
231.604
231.968
232.335
232.703
233.075
233.448
233.824
234.203
234.584
234.967
235.353
235.742
236.134
236.528
236.925
237.325
237.728
238.134
238.543
238.955
239.37
239.788
240.209
240.634
241.061
241.493
241.927
242.365
242.806
243.251
243.699
244.15
244.605
245.064
245.526
245.992
246.461
246.933
247.409
247.889
248.371
248.858
249.347
249.84
250.336
250.835
251.338
251.843
252.352
252.863
253.378
253.895
254.414
254.937
255.462
255.989
256.519
257.051
257.585
258.121
258.659
259.199
259.74
260.283
260.828
261.374
261.921
262.469
263.018
263.568
264.119
264.67
265.222
265.775
266.327
266.88
267.434
267.987
268.54
269.093
269.646
270.198
270.75
271.301
271.852
272.402
272.952
273.501
274.049
274.596
275.142
275.687
276.231
276.774
277.316
277.856
278.396
278.934
279.471
280.007
280.541
281.075
281.607
282.137
282.667
283.195
283.721
284.246
284.77
285.292
285.812
286.331
286.849
287.365
287.88
288.393
288.904
289.415
289.924
290.431
290.937
291.442
291.945
292.447
292.947
293.446
293.944
294.44
294.935
295.429
295.922
296.413
296.903
297.392
297.88
298.367
298.852
299.337
299.82
300.302
300.783
301.263
301.742
302.22
302.696
303.172
303.647
304.12
304.593
305.064
305.534
306.003
306.471
306.938
307.404
307.868
308.331
308.793
309.253
309.712
310.169
310.624
311.078
311.529
312.006
312.492
312.943
313.362
313.751
314.113
314.448
314.76
315.049
315.317
315.566
315.797
316.012
316.211
316.396
316.568
316.727
316.875
317.012
317.139
317.258
317.368
317.469
317.564
317.652
317.733
317.809
317.88
317.945
318.006
318.062
318.115
318.164
318.206
318.271
137.963
139.738
141.638
143.668
145.833
148.13
150.534
153.037
155.6
158.223
160.862
163.506
166.094
168.594
170.931
173.073
175.042
176.811
178.388
179.726
180.881
181.806
182.634
183.298
183.93
184.47
185.023
185.551
186.085
186.611
187.133
187.648
188.156
188.671
189.201
189.71
190.176
190.632
191.08
191.52
191.953
192.378
192.798
193.212
193.622
194.027
194.429
194.829
195.226
195.622
196.018
196.413
196.808
197.204
197.6
197.997
198.394
198.792
199.191
199.59
199.989
200.388
200.786
201.184
201.582
201.978
202.373
202.766
203.159
203.55
203.939
204.326
204.712
205.097
205.479
205.86
206.239
206.616
206.992
207.366
207.738
208.109
208.478
208.845
209.211
209.576
209.938
210.3
210.659
211.018
211.375
211.73
212.085
212.437
212.789
213.139
213.488
213.836
214.183
214.529
214.873
215.217
215.559
215.901
216.242
216.581
216.92
217.259
217.596
217.933
218.269
218.605
218.94
219.275
219.61
219.944
220.277
220.611
220.944
221.277
221.61
221.944
222.277
222.61
222.943
223.276
223.61
223.944
224.278
224.613
224.948
225.284
225.62
225.958
226.296
226.635
226.975
227.316
227.659
228.003
228.348
228.695
229.044
229.394
229.746
230.1
230.455
230.813
231.173
231.535
231.899
232.266
232.635
233.006
233.379
233.755
234.133
234.514
234.897
235.283
235.671
236.063
236.457
236.853
237.253
237.655
238.06
238.469
238.88
239.294
239.711
240.132
240.556
240.983
241.413
241.847
242.283
242.724
243.167
243.614
244.065
244.519
244.976
245.437
245.902
246.37
246.841
247.316
247.794
248.276
248.761
249.249
249.741
250.236
250.734
251.235
251.74
252.247
252.758
253.271
253.787
254.307
254.828
255.353
255.88
256.409
256.94
257.474
258.01
258.548
259.088
259.629
260.173
260.717
261.264
261.811
262.36
262.91
263.46
264.012
264.564
265.117
265.671
266.225
266.779
267.333
267.888
268.443
268.997
269.551
270.105
270.659
271.212
271.765
272.316
272.868
273.418
273.968
274.516
275.064
275.611
276.157
276.701
277.245
277.787
278.328
278.867
279.406
279.943
280.479
281.014
281.547
282.079
282.609
283.138
283.666
284.192
284.717
285.24
285.761
286.281
286.799
287.316
287.832
288.345
288.858
289.368
289.877
290.385
290.892
291.396
291.9
292.401
292.902
293.401
293.899
294.395
294.89
295.383
295.875
296.366
296.856
297.344
297.832
298.318
298.802
299.286
299.768
300.25
300.73
301.209
301.687
302.163
302.639
303.114
303.587
304.06
304.531
305.001
305.471
305.939
306.406
306.872
307.337
307.8
308.263
308.724
309.184
309.642
310.099
310.555
311.009
311.461
311.911
312.36
312.833
313.315
313.763
314.179
314.565
314.924
315.257
315.566
315.853
316.119
316.367
316.596
316.809
317.006
317.19
317.36
317.518
317.664
317.8
317.926
318.044
318.152
318.253
318.347
318.434
318.515
318.59
318.66
318.724
318.785
318.84
318.892
318.941
318.982
319.047
137.963
139.739
141.639
143.668
145.833
148.129
150.531
153.031
155.591
158.209
160.842
163.482
166.062
168.559
170.885
173.029
174.987
176.761
178.334
179.685
180.813
181.763
182.59
183.272
183.903
184.472
185.036
185.583
186.144
186.699
187.265
187.831
188.411
189.003
189.619
190.203
190.739
191.26
191.764
192.256
192.734
193.201
193.658
194.104
194.542
194.971
195.393
195.809
196.22
196.627
197.031
197.432
197.831
198.229
198.625
199.021
199.417
199.812
200.208
200.603
200.998
201.393
201.787
202.181
202.573
202.965
203.356
203.745
204.133
204.52
204.905
205.288
205.67
206.051
206.429
206.806
207.182
207.555
207.927
208.298
208.667
209.034
209.399
209.763
210.126
210.486
210.846
211.204
211.56
211.915
212.269
212.622
212.973
213.322
213.671
214.018
214.365
214.71
215.054
215.397
215.739
216.08
216.42
216.759
217.098
217.436
217.773
218.109
218.445
218.781
219.116
219.45
219.784
220.118
220.451
220.785
221.118
221.451
221.784
222.117
222.45
222.783
223.116
223.45
223.784
224.118
224.453
224.788
225.123
225.46
225.797
226.135
226.474
226.814
227.155
227.498
227.841
228.186
228.533
228.881
229.231
229.583
229.937
230.292
230.649
231.009
231.37
231.734
232.1
232.468
232.838
233.211
233.586
233.964
234.343
234.726
235.111
235.498
235.888
236.281
236.677
237.075
237.476
237.88
238.287
238.697
239.109
239.525
239.944
240.366
240.791
241.22
241.651
242.086
242.525
242.966
243.411
243.86
244.312
244.767
245.225
245.688
246.153
246.622
247.095
247.57
248.05
248.532
249.018
249.508
250
250.496
250.995
251.498
252.003
252.511
253.023
253.537
254.055
254.575
255.097
255.623
256.15
256.681
257.214
257.748
258.286
258.825
259.366
259.909
260.453
260.999
261.547
262.096
262.647
263.198
263.75
264.304
264.858
265.412
265.968
266.523
267.079
267.636
268.192
268.749
269.305
269.861
270.417
270.972
271.527
272.082
272.635
273.188
273.741
274.292
274.842
275.392
275.94
276.487
277.033
277.578
278.122
278.664
279.205
279.744
280.283
280.82
281.355
281.889
282.422
282.953
283.482
284.01
284.537
285.062
285.585
286.106
286.627
287.145
287.662
288.177
288.69
289.202
289.713
290.221
290.728
291.234
291.738
292.241
292.742
293.241
293.739
294.236
294.731
295.224
295.716
296.207
296.696
297.185
297.671
298.157
298.641
299.124
299.606
300.086
300.565
301.043
301.52
301.996
302.471
302.944
303.417
303.888
304.358
304.827
305.296
305.763
306.229
306.693
307.157
307.62
308.081
308.542
309.001
309.459
309.916
310.371
310.826
311.278
311.729
312.179
312.627
313.073
313.517
313.986
314.463
314.907
315.319
315.701
316.056
316.385
316.691
316.975
317.238
317.483
317.71
317.92
318.115
318.297
318.465
318.621
318.765
318.9
319.024
319.14
319.247
319.347
319.44
319.526
319.605
319.679
319.748
319.812
319.871
319.926
319.977
320.026
320.066
320.13
137.963
139.74
141.64
143.668
145.832
148.125
150.525
153.019
155.577
158.182
160.816
163.436
166.021
168.493
170.83
172.948
174.91
176.665
178.222
179.569
180.698
181.659
182.498
183.22
183.879
184.491
185.095
185.687
186.305
186.93
187.583
188.242
188.932
189.631
190.356
191.033
191.647
192.238
192.805
193.352
193.879
194.391
194.886
195.367
195.834
196.29
196.734
197.169
197.595
198.014
198.427
198.835
199.239
199.638
200.036
200.431
200.824
201.216
201.607
201.997
202.386
202.775
203.163
203.55
203.936
204.322
204.706
205.089
205.47
205.851
206.23
206.607
206.983
207.357
207.73
208.101
208.471
208.839
209.205
209.57
209.933
210.295
210.655
211.014
211.371
211.727
212.082
212.435
212.786
213.137
213.486
213.833
214.18
214.525
214.87
215.213
215.555
215.897
216.237
216.576
216.915
217.253
217.59
217.927
218.262
218.598
218.932
219.267
219.601
219.934
220.268
220.601
220.934
221.266
221.599
221.932
222.264
222.597
222.93
223.263
223.597
223.931
224.265
224.6
224.935
225.272
225.608
225.946
226.285
226.625
226.966
227.308
227.651
227.996
228.342
228.69
229.039
229.39
229.743
230.098
230.455
230.814
231.175
231.538
231.903
232.27
232.639
233.011
233.385
233.761
234.14
234.521
234.905
235.291
235.68
236.071
236.465
236.861
237.261
237.663
238.068
238.476
238.887
239.301
239.718
240.137
240.56
240.986
241.416
241.848
242.284
242.723
243.165
243.611
244.06
244.512
244.968
245.427
245.889
246.355
246.824
247.296
247.772
248.252
248.734
249.22
249.71
250.202
250.698
251.197
251.699
252.204
252.713
253.224
253.738
254.256
254.776
255.298
255.824
256.352
256.882
257.415
257.951
258.488
259.028
259.569
260.113
260.659
261.206
261.754
262.305
262.856
263.409
263.963
264.518
265.074
265.63
266.187
266.745
267.303
267.861
268.42
268.979
269.537
270.096
270.654
271.212
271.769
272.326
272.883
273.438
273.993
274.547
275.1
275.652
276.202
276.752
277.301
277.848
278.394
278.938
279.481
280.023
280.563
281.102
281.639
282.175
282.709
283.242
283.772
284.302
284.829
285.355
285.879
286.402
286.923
287.442
287.959
288.475
288.989
289.501
290.012
290.521
291.028
291.533
292.037
292.539
293.039
293.538
294.035
294.531
295.025
295.518
296.009
296.498
296.986
297.473
297.958
298.442
298.924
299.405
299.885
300.364
300.841
301.317
301.791
302.265
302.737
303.208
303.678
304.147
304.615
305.082
305.547
306.012
306.475
306.937
307.399
307.859
308.318
308.776
309.233
309.689
310.144
310.597
311.049
311.501
311.95
312.399
312.846
313.291
313.735
314.177
314.618
315.056
315.519
315.99
316.428
316.834
317.211
317.561
317.886
318.188
318.467
318.727
318.968
319.191
319.399
319.591
319.769
319.935
320.088
320.231
320.363
320.485
320.599
320.704
320.802
320.893
320.977
321.056
321.128
321.196
321.258
321.316
321.37
321.42
321.468
321.507
321.57
137.963
139.741
141.641
143.671
145.831
148.126
150.519
153.015
155.561
158.164
160.778
163.398
165.952
168.419
170.711
172.818
174.737
176.465
177.997
179.34
180.502
181.501
182.387
183.175
183.911
184.614
185.32
186.035
186.78
187.546
188.341
189.146
189.977
190.807
191.654
192.434
193.131
193.793
194.423
195.025
195.601
196.155
196.688
197.201
197.697
198.177
198.642
199.094
199.534
199.964
200.386
200.799
201.206
201.607
202.004
202.396
202.785
203.171
203.555
203.938
204.319
204.699
205.079
205.457
205.834
206.21
206.585
206.959
207.331
207.702
208.072
208.441
208.808
209.174
209.538
209.901
210.262
210.622
210.981
211.338
211.693
212.047
212.4
212.751
213.101
213.45
213.798
214.144
214.489
214.833
215.176
215.518
215.858
216.198
216.537
216.875
217.213
217.549
217.885
218.22
218.555
218.889
219.223
219.556
219.889
220.222
220.554
220.886
221.218
221.55
221.882
222.215
222.547
222.879
223.212
223.545
223.878
224.212
224.547
224.882
225.217
225.554
225.891
226.23
226.569
226.91
227.252
227.595
227.94
228.286
228.634
228.983
229.334
229.687
230.041
230.398
230.756
231.116
231.479
231.843
232.21
232.579
232.95
233.323
233.699
234.077
234.457
234.84
235.225
235.613
236.003
236.396
236.792
237.19
237.591
237.995
238.401
238.811
239.223
239.638
240.056
240.478
240.902
241.329
241.76
242.193
242.63
243.07
243.513
243.96
244.409
244.862
245.319
245.778
246.241
246.707
247.176
247.649
248.125
248.604
249.087
249.572
250.062
250.554
251.049
251.548
252.05
252.554
253.062
253.573
254.087
254.604
255.124
255.646
256.171
256.699
257.229
257.762
258.297
258.835
259.375
259.917
260.461
261.007
261.555
262.104
262.655
263.208
263.762
264.318
264.874
265.432
265.991
266.55
267.11
267.67
268.231
268.793
269.354
269.916
270.477
271.039
271.6
272.16
272.721
273.281
273.84
274.398
274.955
275.512
276.068
276.622
277.175
277.727
278.278
278.827
279.375
279.922
280.467
281.01
281.552
282.092
282.631
283.168
283.703
284.236
284.768
285.298
285.826
286.352
286.877
287.399
287.92
288.439
288.956
289.471
289.984
290.495
291.005
291.513
292.019
292.523
293.025
293.525
294.024
294.521
295.016
295.51
296.002
296.492
296.98
297.467
297.953
298.436
298.919
299.399
299.879
300.356
300.833
301.308
301.781
302.254
302.724
303.194
303.663
304.13
304.596
305.061
305.524
305.987
306.448
306.908
307.367
307.825
308.282
308.738
309.193
309.647
310.1
310.552
311.002
311.452
311.9
312.348
312.794
313.239
313.683
314.125
314.567
315.006
315.444
315.881
316.316
316.749
317.18
317.635
318.098
318.528
318.927
319.298
319.641
319.96
320.256
320.531
320.785
321.021
321.24
321.443
321.631
321.806
321.968
322.118
322.257
322.386
322.506
322.617
322.72
322.815
322.904
322.986
323.062
323.133
323.199
323.259
323.316
323.368
323.417
323.463
323.501
323.562
137.964
139.743
141.643
143.67
145.834
148.121
150.53
153.013
155.581
158.186
160.828
163.43
165.982
168.393
170.629
172.665
174.535
176.24
177.789
179.191
180.463
181.613
182.671
183.662
184.61
185.535
186.457
187.379
188.332
189.305
190.291
191.273
192.256
193.225
194.189
195.063
195.832
196.557
197.24
197.888
198.503
199.09
199.65
200.186
200.701
201.196
201.673
202.134
202.58
203.014
203.437
203.849
204.253
204.649
205.038
205.423
205.803
206.179
206.552
206.923
207.292
207.659
208.025
208.389
208.752
209.114
209.475
209.834
210.193
210.55
210.906
211.261
211.615
211.967
212.318
212.668
213.017
213.365
213.711
214.056
214.4
214.743
215.085
215.425
215.765
216.104
216.442
216.779
217.115
217.45
217.785
218.118
218.452
218.785
219.117
219.449
219.78
220.111
220.442
220.773
221.103
221.434
221.764
222.094
222.425
222.756
223.086
223.418
223.749
224.081
224.414
224.747
225.081
225.415
225.751
226.087
226.425
226.763
227.103
227.444
227.786
228.13
228.475
228.821
229.17
229.52
229.871
230.225
230.58
230.938
231.297
231.658
232.021
232.387
232.754
233.124
233.496
233.87
234.247
234.626
235.007
235.391
235.777
236.165
236.557
236.951
237.347
237.746
238.148
238.553
238.96
239.37
239.783
240.199
240.618
241.04
241.464
241.892
242.323
242.757
243.193
243.633
244.076
244.523
244.972
245.424
245.88
246.339
246.801
247.266
247.734
248.205
248.68
249.158
249.638
250.122
250.61
251.1
251.593
252.089
252.589
253.091
253.597
254.105
254.617
255.131
255.648
256.168
256.691
257.216
257.744
258.275
258.808
259.344
259.882
260.423
260.965
261.51
262.057
262.606
263.156
263.709
264.263
264.819
265.376
265.934
266.494
267.055
267.616
268.179
268.742
269.306
269.871
270.436
271.001
271.566
272.131
272.696
273.26
273.825
274.388
274.952
275.514
276.076
276.637
277.197
277.756
278.313
278.87
279.425
279.978
280.53
281.081
281.63
282.178
282.724
283.268
283.81
284.35
284.889
285.425
285.96
286.493
287.023
287.552
288.078
288.603
289.126
289.646
290.164
290.681
291.195
291.707
292.218
292.726
293.232
293.736
294.238
294.738
295.236
295.733
296.227
296.719
297.21
297.698
298.185
298.67
299.153
299.635
300.115
300.593
301.069
301.544
302.017
302.489
302.959
303.427
303.894
304.36
304.824
305.287
305.749
306.209
306.668
307.126
307.582
308.038
308.492
308.945
309.397
309.847
310.297
310.746
311.193
311.64
312.085
312.53
312.973
313.416
313.857
314.298
314.737
315.175
315.612
316.048
316.483
316.917
317.349
317.78
318.21
318.638
319.064
319.488
319.911
320.332
320.776
321.228
321.647
322.036
322.397
322.731
323.041
323.329
323.596
323.843
324.072
324.285
324.481
324.664
324.833
324.989
325.134
325.268
325.393
325.508
325.615
325.714
325.806
325.891
325.97
326.043
326.111
326.174
326.232
326.286
326.336
326.382
326.426
326.463
326.521
137.966
139.753
141.679
143.738
145.963
148.339
150.857
153.489
156.2
158.948
161.694
164.374
166.974
169.449
171.83
174.097
176.238
178.254
180.126
181.865
183.46
184.926
186.273
187.527
188.707
189.837
190.938
192.019
193.092
194.16
195.225
196.278
197.32
198.344
199.355
200.27
201.07
201.82
202.524
203.187
203.816
204.412
204.979
205.519
206.036
206.529
207.003
207.459
207.898
208.323
208.735
209.135
209.525
209.906
210.279
210.647
211.01
211.368
211.723
212.075
212.425
212.774
213.121
213.467
213.812
214.156
214.5
214.842
215.184
215.526
215.866
216.206
216.546
216.884
217.222
217.559
217.896
218.232
218.567
218.902
219.236
219.57
219.903
220.236
220.568
220.9
221.232
221.563
221.895
222.226
222.557
222.888
223.22
223.551
223.882
224.214
224.546
224.879
225.211
225.545
225.879
226.214
226.549
226.885
227.223
227.561
227.9
228.241
228.583
228.926
229.27
229.616
229.964
230.313
230.664
231.017
231.371
231.727
232.085
232.445
232.807
233.171
233.537
233.905
234.275
234.647
235.022
235.399
235.778
236.159
236.543
236.929
237.317
237.708
238.102
238.498
238.897
239.298
239.702
240.109
240.518
240.93
241.345
241.762
242.183
242.606
243.032
243.46
243.892
244.327
244.764
245.205
245.648
246.094
246.543
246.995
247.45
247.908
248.369
248.832
249.299
249.768
250.241
250.716
251.194
251.675
252.159
252.646
253.136
253.628
254.124
254.622
255.123
255.627
256.133
256.642
257.154
257.669
258.186
258.706
259.229
259.754
260.282
260.812
261.345
261.88
262.418
262.958
263.5
264.044
264.591
265.14
265.69
266.243
266.797
267.353
267.911
268.47
269.031
269.593
270.157
270.721
271.287
271.853
272.42
272.988
273.557
274.125
274.695
275.264
275.833
276.403
276.972
277.54
278.108
278.676
279.243
279.809
280.374
280.938
281.5
282.062
282.622
283.18
283.737
284.293
284.846
285.398
285.948
286.496
287.042
287.585
288.127
288.667
289.204
289.739
290.272
290.802
291.331
291.857
292.38
292.901
293.42
293.936
294.45
294.962
295.471
295.978
296.482
296.984
297.484
297.982
298.477
298.97
299.461
299.949
300.436
300.92
301.402
301.882
302.36
302.836
303.309
303.781
304.251
304.719
305.185
305.649
306.112
306.572
307.031
307.489
307.944
308.398
308.851
309.302
309.751
310.199
310.646
311.091
311.535
311.978
312.419
312.859
313.298
313.736
314.173
314.608
315.043
315.476
315.909
316.34
316.771
317.2
317.629
318.056
318.483
318.908
319.333
319.757
320.179
320.601
321.022
321.441
321.86
322.277
322.693
323.108
323.522
323.934
324.344
324.753
325.16
325.564
325.967
326.392
326.824
327.224
327.595
327.939
328.257
328.552
328.825
329.078
329.312
329.528
329.729
329.914
330.085
330.244
330.391
330.526
330.652
330.768
330.875
330.974
331.066
331.151
331.229
331.302
331.369
331.431
331.488
331.541
331.59
331.636
331.678
331.717
331.751
331.803
138.664
141.86
145.214
148.693
152.263
155.863
159.443
162.947
166.356
169.656
172.844
175.908
178.854
181.661
184.326
186.826
189.15
191.312
193.293
195.122
196.787
198.316
199.712
201.007
202.215
203.363
204.464
205.529
206.568
207.591
208.599
209.595
210.58
211.56
212.533
213.417
214.197
214.931
215.624
216.278
216.9
217.49
218.052
218.587
219.099
219.588
220.057
220.508
220.942
221.361
221.766
222.16
222.543
222.917
223.283
223.644
224.001
224.354
224.705
225.055
225.404
225.753
226.102
226.452
226.802
227.153
227.504
227.856
228.209
228.563
228.917
229.273
229.629
229.985
230.343
230.701
231.06
231.42
231.78
232.141
232.504
232.867
233.231
233.596
233.962
234.329
234.697
235.067
235.437
235.809
236.182
236.556
236.932
237.308
237.687
238.066
238.447
238.829
239.213
239.598
239.985
240.373
240.763
241.154
241.547
241.942
242.339
242.737
243.137
243.539
243.943
244.349
244.757
245.167
245.579
245.994
246.41
246.829
247.249
247.672
248.098
248.525
248.955
249.387
249.821
250.257
250.696
251.136
251.579
252.025
252.472
252.922
253.374
253.828
254.284
254.742
255.203
255.666
256.13
256.597
257.066
257.537
258.01
258.485
258.962
259.441
259.923
260.406
260.891
261.378
261.867
262.358
262.85
263.345
263.842
264.34
264.84
265.342
265.846
266.352
266.86
267.369
267.881
268.394
268.909
269.425
269.944
270.464
270.986
271.51
272.036
272.563
273.093
273.623
274.156
274.691
275.227
275.765
276.304
276.845
277.388
277.932
278.478
279.026
279.575
280.125
280.677
281.23
281.784
282.339
282.896
283.453
284.011
284.57
285.13
285.69
286.251
286.812
287.373
287.935
288.496
289.057
289.618
290.178
290.738
291.297
291.855
292.412
292.968
293.523
294.076
294.627
295.177
295.725
296.271
296.815
297.357
297.897
298.434
298.968
299.501
300.03
300.557
301.081
301.602
302.12
302.635
303.147
303.657
304.163
304.666
305.166
305.663
306.157
306.647
307.135
307.62
308.101
308.58
309.055
309.528
309.997
310.464
310.928
311.388
311.847
312.302
312.754
313.204
313.651
314.096
314.538
314.977
315.414
315.849
316.281
316.712
317.139
317.565
317.989
318.41
318.83
319.248
319.663
320.077
320.49
320.9
321.309
321.716
322.122
322.526
322.928
323.33
323.729
324.128
324.525
324.921
325.316
325.71
326.103
326.495
326.886
327.276
327.665
328.053
328.44
328.827
329.212
329.597
329.981
330.365
330.748
331.13
331.512
331.893
332.273
332.652
333.031
333.409
333.787
334.163
334.539
334.914
335.288
335.661
336.033
336.404
336.774
337.142
337.508
337.873
338.236
338.597
338.955
339.311
339.686
340.065
340.415
340.739
341.038
341.313
341.567
341.8
342.016
342.214
342.396
342.563
342.717
342.859
342.988
343.108
343.217
343.317
343.409
343.493
343.571
343.641
343.706
343.765
343.82
343.869
343.914
343.956
343.994
344.028
344.06
344.089
344.115
344.138
344.172
137.107
137.138
137.186
137.261
137.373
137.542
137.789
138.132
138.586
139.157
139.852
140.673
141.62
142.694
143.888
145.197
146.579
148.034
149.522
151.049
152.556
154.078
155.542
156.995
158.362
159.704
160.956
162.17
163.296
164.363
165.335
166.242
167.095
167.934
168.758
169.522
170.199
170.848
171.477
172.091
172.697
173.296
173.887
174.471
175.05
175.624
176.194
176.761
177.325
177.885
178.443
178.997
179.549
180.099
180.645
181.188
181.728
182.265
182.799
183.329
183.856
184.38
184.901
185.418
185.931
186.441
186.948
187.451
187.95
188.446
188.938
189.427
189.912
190.394
190.872
191.348
191.82
192.288
192.754
193.216
193.676
194.132
194.585
195.035
195.483
195.927
196.369
196.808
197.244
197.677
198.108
198.536
198.962
199.385
199.805
200.223
200.638
201.051
201.462
201.87
202.276
202.679
203.08
203.479
203.876
204.27
204.663
205.053
205.441
205.827
206.211
206.593
206.973
207.351
207.727
208.102
208.474
208.845
209.214
209.581
209.947
210.311
210.673
211.033
211.393
211.75
212.107
212.461
212.815
213.167
213.518
213.867
214.215
214.562
214.908
215.253
215.597
215.94
216.282
216.623
216.963
217.302
217.641
217.978
218.316
218.652
218.988
219.324
219.659
219.994
220.329
220.663
220.998
221.332
221.666
222.001
222.335
222.67
223.006
223.341
223.677
224.014
224.351
224.689
225.027
225.367
225.707
226.048
226.39
226.734
227.078
227.423
227.77
228.118
228.467
228.818
229.17
229.523
229.878
230.235
230.593
230.953
231.314
231.677
232.043
232.41
232.778
233.149
233.522
233.897
234.274
234.653
235.035
235.418