/*--------------------------------*- C++ -*----------------------------------*\
| =========                 |                                                 |
| \\      /  F ield         | OpenFOAM: The Open Source CFD Toolbox           |
|  \\    /   O peration     | Version:  2.4.0                                 |
|   \\  /    A nd           | Web:      www.OpenFOAM.org                      |
|    \\/     M anipulation  |                                                 |
\*---------------------------------------------------------------------------*/
FoamFile
{
    version     2.0;
    format      ascii;
    class       volVectorField;
    location    "15000/fluid";
    object      U;
}
// * * * * * * * * * * * * * * * * * * * * * * * * * * * * * * * * * * * * * //

dimensions      [0 1 -1 0 0 0 0];

internalField   nonuniform List<vector> 
105000
(
(17.3763 -0.000794688 0.0489332)
(17.1564 -0.00677857 0.130423)
(16.899 -0.00874618 0.161083)
(16.5777 -0.0094681 0.17444)
(16.2206 -0.00982147 0.193818)
(15.8474 -0.0102997 0.194628)
(15.4632 -0.00949864 0.195981)
(15.0694 -0.00938981 0.178589)
(14.6757 -0.00820437 0.16776)
(14.2882 -0.00801455 0.145999)
(13.913 -0.00650264 0.120455)
(13.5531 -0.00636427 0.100218)
(13.2197 -0.00481398 0.0758166)
(12.9162 -0.00481681 0.0580556)
(12.6562 -0.00340022 0.0367515)
(12.4386 -0.00363873 0.0238341)
(12.2664 -0.00238209 0.0104731)
(12.1288 -0.00291785 0.00361823)
(12.0439 -0.00164254 -0.00248557)
(11.9777 -0.00212711 -0.00868925)
(11.9811 -0.00153412 -0.0108258)
(12.0006 -0.00222964 -0.0113529)
(12.0476 -0.000969955 -0.0111261)
(12.1113 -0.00231114 -0.00955643)
(12.1958 -0.000981364 -0.00908365)
(12.2842 -0.00207132 -0.00662686)
(12.3818 -0.00105061 -0.00653608)
(12.4765 -0.0019212 -0.00348049)
(12.5773 -0.00105742 -0.00450464)
(12.6775 -0.00165405 -0.00276596)
(12.7838 -0.00120386 -0.00328172)
(12.8946 -0.0014043 -0.00288384)
(13.0148 -0.00126237 -0.00311807)
(13.1411 -0.00115097 -0.00295949)
(13.2728 -0.000806824 -0.00317309)
(13.3939 -0.000960358 -0.00273545)
(13.5034 -0.000634726 -0.00282398)
(13.6072 -0.000489664 -0.00265053)
(13.7053 -0.00037666 -0.00251488)
(13.799 -0.000147183 -0.00253889)
(13.8876 -8.52012e-05 -0.00234936)
(13.9715 3.97833e-05 -0.00224536)
(14.0509 0.000101823 -0.0020873)
(14.1265 0.00020749 -0.00199502)
(14.1985 0.000241449 -0.00183059)
(14.2673 0.000293121 -0.00171572)
(14.3335 0.000330296 -0.00158984)
(14.3972 0.000341808 -0.00144672)
(14.4587 0.000361103 -0.00132611)
(14.5185 0.000361263 -0.00119312)
(14.5767 0.000350826 -0.00105747)
(14.6336 0.000334075 -0.000930634)
(14.6896 0.000306982 -0.000799721)
(14.745 0.000281052 -0.00068182)
(14.7999 0.000250485 -0.000568097)
(14.8545 0.000212873 -0.000448922)
(14.9089 0.000181992 -0.000349857)
(14.9632 0.00014751 -0.000248047)
(15.0174 0.00011538 -0.000149836)
(15.0714 8.57766e-05 -5.96907e-05)
(15.1254 5.84341e-05 2.432e-05)
(15.1793 3.37248e-05 0.000100652)
(15.2332 1.16015e-05 0.000169803)
(15.287 -8.1516e-06 0.000232552)
(15.3408 -2.56247e-05 0.000288631)
(15.3947 -4.0717e-05 0.000339508)
(15.4486 -5.36367e-05 0.000385696)
(15.5025 -6.45611e-05 0.000427805)
(15.5565 -7.36543e-05 0.000466515)
(15.6105 -8.11066e-05 0.000502436)
(15.6646 -8.70404e-05 0.000535932)
(15.7187 -9.17743e-05 0.000567602)
(15.7729 -9.54056e-05 0.000597965)
(15.8272 -9.81868e-05 0.000627196)
(15.8814 -0.000100197 0.000655571)
(15.9358 -0.000101539 0.000683474)
(15.9902 -0.000102436 0.000710861)
(16.0446 -0.000102926 0.00073792)
(16.099 -0.000103072 0.000765004)
(16.1535 -0.000102984 0.000792251)
(16.2081 -0.000102765 0.000819545)
(16.2627 -0.000102486 0.000846932)
(16.3173 -0.000102211 0.000874557)
(16.3719 -0.000101936 0.000902409)
(16.4266 -0.00010165 0.000930453)
(16.4813 -0.00010144 0.000958736)
(16.5361 -0.000101361 0.000987287)
(16.5909 -0.000101393 0.00101606)
(16.6458 -0.000101577 0.00104503)
(16.7007 -0.000101922 0.00107415)
(16.7556 -0.000102448 0.00110342)
(16.8106 -0.000103096 0.00113293)
(16.8657 -0.000103854 0.00116261)
(16.9208 -0.000104803 0.0011923)
(16.9759 -0.000105983 0.00122193)
(17.0312 -0.000107301 0.00125168)
(17.0865 -0.000108698 0.00128151)
(17.1418 -0.000110318 0.00131114)
(17.1973 -0.000112077 0.00134083)
(17.2528 -0.000113964 0.00137037)
(17.3084 -0.000116018 0.00139978)
(17.3641 -0.000118126 0.00142905)
(17.4199 -0.000120372 0.00145817)
(17.4758 -0.000122752 0.00148734)
(17.5317 -0.000125218 0.00151625)
(17.5878 -0.000127802 0.00154456)
(17.644 -0.000130422 0.00157248)
(17.7003 -0.000133161 0.00159999)
(17.7567 -0.000135922 0.001627)
(17.8132 -0.000138678 0.00165366)
(17.8699 -0.000141613 0.00167964)
(17.9267 -0.000144524 0.00170509)
(17.9836 -0.000147483 0.00172999)
(18.0406 -0.000150554 0.00175402)
(18.0978 -0.000153556 0.00177738)
(18.1551 -0.00015657 0.00180008)
(18.2126 -0.000159747 0.0018218)
(18.2702 -0.000162891 0.00184259)
(18.328 -0.000165947 0.0018626)
(18.3859 -0.000169059 0.00188165)
(18.444 -0.000172286 0.00189962)
(18.5023 -0.000175534 0.0019165)
(18.5607 -0.000178688 0.00193251)
(18.6193 -0.000181802 0.00194765)
(18.6781 -0.000184985 0.00196174)
(18.7371 -0.000188212 0.00197476)
(18.7962 -0.000191472 0.00198684)
(18.8555 -0.00019468 0.001998)
(18.9151 -0.000197838 0.00200837)
(18.9748 -0.000200908 0.00201815)
(19.0347 -0.000203939 0.00202742)
(19.0948 -0.000207028 0.00203621)
(19.1551 -0.000210129 0.00204432)
(19.2156 -0.0002132 0.00205179)
(19.2764 -0.000216095 0.00205889)
(19.3373 -0.000218962 0.00206568)
(19.3985 -0.000221803 0.00207234)
(19.4599 -0.000224429 0.00207892)
(19.5215 -0.00022705 0.00208547)
(19.5833 -0.000229507 0.00209209)
(19.6454 -0.000231853 0.00209878)
(19.7078 -0.000234106 0.00210558)
(19.7704 -0.000236213 0.00211251)
(19.8332 -0.00023824 0.00211945)
(19.8963 -0.000240041 0.00212648)
(19.9597 -0.000241854 0.00213346)
(20.0234 -0.000243482 0.00214035)
(20.0874 -0.000244909 0.00214711)
(20.1516 -0.000246466 0.00215367)
(20.2162 -0.000247671 0.00215993)
(20.2811 -0.000248706 0.00216587)
(20.3463 -0.000249827 0.00217132)
(20.4119 -0.000250787 0.0021763)
(20.4778 -0.00025152 0.00218066)
(20.544 -0.000252083 0.00218396)
(20.6106 -0.000252685 0.00218632)
(20.6776 -0.000253396 0.00218841)
(20.7449 -0.000254037 0.00219008)
(20.8126 -0.000254596 0.00219074)
(20.8807 -0.000255097 0.00219064)
(20.9492 -0.000255387 0.0021898)
(21.018 -0.000255568 0.00218804)
(21.0873 -0.000255771 0.00218544)
(21.157 -0.000255899 0.00218211)
(21.227 -0.000255986 0.00217829)
(21.2976 -0.000256032 0.00217382)
(21.3685 -0.000256094 0.00216874)
(21.4398 -0.000256051 0.00216334)
(21.5116 -0.000255762 0.0021574)
(21.5839 -0.000255545 0.00215105)
(21.6565 -0.000255294 0.00214455)
(21.7297 -0.000255077 0.00213749)
(21.8032 -0.000254763 0.00212993)
(21.8773 -0.000254136 0.00212233)
(21.9518 -0.000253879 0.00211426)
(22.0268 -0.000253536 0.00210602)
(22.1023 -0.000252787 0.00209796)
(22.1783 -0.000251934 0.00208783)
(22.2547 -0.000251194 0.00207771)
(22.3318 -0.000250646 0.0020685)
(22.4093 -0.000250079 0.00205934)
(22.4873 -0.000249507 0.00204977)
(22.5659 -0.000248737 0.00203902)
(22.645 -0.000248146 0.00202838)
(22.7246 -0.000247695 0.0020167)
(22.8048 -0.000246671 0.00200463)
(22.8856 -0.000245955 0.00199265)
(22.9669 -0.000245525 0.00197928)
(23.0489 -0.000244544 0.00196521)
(23.1314 -0.000243516 0.00195114)
(23.2145 -0.000242679 0.00193661)
(23.2983 -0.000242054 0.00192097)
(23.3827 -0.000241321 0.00190414)
(23.4677 -0.000240344 0.00188693)
(23.5533 -0.0002392 0.00186925)
(23.6396 -0.000237901 0.00185065)
(23.7266 -0.000236868 0.00183096)
(23.8143 -0.000235808 0.00181039)
(23.9026 -0.0002341 0.00178764)
(23.9917 -0.000232399 0.00176458)
(24.0815 -0.000230924 0.00174231)
(24.1721 -0.000229826 0.00171882)
(24.2633 -0.000228446 0.00169404)
(24.3553 -0.000226841 0.00166862)
(24.448 -0.000224664 0.00164163)
(24.5415 -0.000222721 0.001614)
(24.6358 -0.000220895 0.00158497)
(24.7309 -0.000218595 0.00155506)
(24.8268 -0.000216217 0.00152453)
(24.9234 -0.000213501 0.00149255)
(25.0209 -0.00021131 0.00146012)
(25.1193 -0.000208237 0.00142632)
(25.2184 -0.000205044 0.00139111)
(25.3184 -0.000201915 0.00135606)
(25.4193 -0.000198638 0.00131958)
(25.521 -0.000195373 0.00128215)
(25.6237 -0.000191091 0.00124314)
(25.7272 -0.000187176 0.0012017)
(25.8317 -0.000182907 0.00116232)
(25.937 -0.000178521 0.00112276)
(26.0432 -0.000174153 0.00108131)
(26.1504 -0.000169655 0.00104003)
(26.2584 -0.000164763 0.000998068)
(26.3674 -0.000159298 0.000954719)
(26.4772 -0.000154356 0.000910499)
(26.588 -0.000149012 0.000865867)
(26.6998 -0.000143367 0.000820931)
(26.8124 -0.000137851 0.000776068)
(26.9261 -0.000131678 0.000730252)
(27.0406 -0.000125309 0.000683467)
(27.1561 -0.000119172 0.000637134)
(27.2725 -0.000112668 0.000589914)
(27.3899 -0.000105966 0.000542805)
(27.5082 -9.91529e-05 0.000493824)
(27.6276 -9.22034e-05 0.000444686)
(27.7479 -8.54426e-05 0.000397661)
(27.8691 -7.83954e-05 0.000349604)
(27.9913 -7.06632e-05 0.000300812)
(28.1144 -6.29644e-05 0.000253449)
(28.2385 -5.5977e-05 0.000207346)
(28.3634 -4.82912e-05 0.000157996)
(28.4894 -4.04061e-05 0.00010858)
(28.6162 -3.23814e-05 6.25463e-05)
(28.744 -2.44555e-05 1.41333e-05)
(28.8727 -1.70093e-05 -3.45464e-05)
(29.0023 -8.40096e-06 -8.11124e-05)
(29.1329 -5.87145e-07 -0.00012959)
(29.2644 7.64922e-06 -0.000175521)
(29.3967 1.60743e-05 -0.000221721)
(29.53 2.39538e-05 -0.000267742)
(29.6642 3.24014e-05 -0.00031068)
(29.7993 4.08751e-05 -0.000354562)
(29.9352 4.95107e-05 -0.000397746)
(30.0719 5.81949e-05 -0.000441588)
(30.2095 6.74771e-05 -0.000485511)
(30.348 7.57627e-05 -0.000529568)
(30.4873 8.43344e-05 -0.000574307)
(30.6275 9.35767e-05 -0.000617569)
(30.7685 0.000101208 -0.000661243)
(30.9104 0.000109011 -0.000705283)
(31.0532 0.000118778 -0.000748354)
(31.1968 0.000127482 -0.000790751)
(31.3412 0.000135208 -0.000836042)
(31.4866 0.000143599 -0.000878951)
(31.6327 0.000152563 -0.000917107)
(31.7797 0.000161822 -0.000958904)
(31.9275 0.0001694 -0.000999276)
(32.0761 0.000176814 -0.00103745)
(32.2254 0.000186365 -0.00107869)
(32.3756 0.000194812 -0.00111673)
(32.5265 0.000203201 -0.00115366)
(32.6782 0.000211546 -0.00119251)
(32.8307 0.000219407 -0.00122976)
(32.9839 0.00022803 -0.00126558)
(33.1379 0.000235628 -0.00130327)
(33.2927 0.00024326 -0.00134146)
(33.4483 0.000251444 -0.00137577)
(33.6045 0.00025881 -0.00140989)
(33.7616 0.000267217 -0.00144439)
(33.9193 0.000275534 -0.00147617)
(34.0777 0.00028283 -0.00150952)
(34.2368 0.000290759 -0.00154253)
(34.3966 0.000298279 -0.0015731)
(34.5571 0.000305725 -0.00160552)
(34.7183 0.000313257 -0.00163716)
(34.8802 0.000319906 -0.00166611)
(35.0428 0.000327079 -0.00169748)
(35.206 0.000333912 -0.00172799)
(35.37 0.000340748 -0.00175477)
(35.5345 0.000348196 -0.00178249)
(35.6997 0.0003552 -0.00181156)
(35.8655 0.000361931 -0.00183903)
(36.032 0.000368312 -0.00186434)
(36.1991 0.000374838 -0.00189053)
(36.3667 0.000380964 -0.00191758)
(36.535 0.000388387 -0.00194368)
(36.7039 0.000394611 -0.00196697)
(36.8734 0.000400477 -0.001992)
(37.0435 0.000405791 -0.0020168)
(37.2142 0.000411164 -0.00203989)
(37.3854 0.000417646 -0.00206324)
(37.5572 0.000423851 -0.00208748)
(37.7295 0.00042888 -0.00210889)
(37.9023 0.00043531 -0.00213048)
(38.0756 0.000441339 -0.00215229)
(38.2495 0.000447039 -0.00217517)
(38.4239 0.000449462 -0.00219467)
(38.5987 0.000454664 -0.00221556)
(38.774 0.000460258 -0.0022358)
(38.9498 0.000466808 -0.00225718)
(39.126 0.000470952 -0.002275)
(39.3026 0.000475907 -0.00229663)
(39.4796 0.000479836 -0.00231691)
(39.657 0.00048769 -0.00233892)
(39.8347 0.000491226 -0.00235881)
(40.0238 0.000496718 -0.00239584)
(40.2176 0.000499705 -0.00242191)
(40.3992 0.000509613 -0.00242827)
(40.569 0.000510701 -0.00242306)
(40.7279 0.000516946 -0.00242598)
(40.8764 0.000519972 -0.00242071)
(41.0153 0.000525531 -0.00242036)
(41.1451 0.000526005 -0.00241811)
(41.2665 0.000534415 -0.00241556)
(41.3798 0.000532939 -0.0024122)
(41.4857 0.000540921 -0.00240386)
(41.5847 0.000542542 -0.00240033)
(41.6771 0.000544012 -0.00239398)
(41.7634 0.000543603 -0.00238787)
(41.8439 0.000555706 -0.00238073)
(41.9192 0.00055225 -0.00238527)
(41.9894 0.000552218 -0.00236652)
(42.055 0.00055734 -0.00237586)
(42.1162 0.000564558 -0.00235431)
(42.1734 0.000562795 -0.00236627)
(42.2267 0.000564245 -0.00234482)
(42.2766 0.000561725 -0.00235997)
(42.3231 0.0005689 -0.00233174)
(42.3665 0.00056866 -0.00234244)
(42.4069 0.000578454 -0.00232286)
(42.4448 0.000575399 -0.00234063)
(42.48 0.000581094 -0.00231652)
(42.513 0.000569684 -0.0023196)
(42.5437 0.000587016 -0.0023288)
(42.5724 0.000557664 -0.0022878)
(42.5993 0.000596919 -0.00238234)
(42.6239 0.000549079 -0.00219151)
(42.6484 0.000599019 -0.00254974)
(42.6672 0.000544737 -0.0019987)
(42.6987 0.000580193 -0.00274011)
(17.3763 -0.00319727 0.0487832)
(17.1575 -0.0203856 0.130199)
(16.9014 -0.0265855 0.161132)
(16.5809 -0.0281632 0.174422)
(16.224 -0.0297863 0.193854)
(15.8511 -0.0307054 0.194548)
(15.467 -0.0288989 0.196017)
(15.0731 -0.0280848 0.178377)
(14.6793 -0.0249443 0.167935)
(14.2917 -0.023739 0.145865)
(13.9161 -0.019735 0.120476)
(13.5562 -0.018585 0.100051)
(13.2221 -0.0144159 0.0757951)
(12.9188 -0.0139072 0.0579622)
(12.6577 -0.00998473 0.0366744)
(12.4404 -0.0105327 0.023916)
(12.267 -0.00694426 0.0102668)
(12.13 -0.00851789 0.00392259)
(12.0436 -0.00498346 -0.00279753)
(11.9781 -0.00603111 -0.00841949)
(11.9808 -0.00473322 -0.0107755)
(12.0004 -0.00653173 -0.011213)
(12.0463 -0.00300715 -0.0110466)
(12.1106 -0.0068815 -0.00952434)
(12.1944 -0.00273566 -0.00904013)
(12.2833 -0.00642379 -0.00662554)
(12.3806 -0.00288605 -0.00642769)
(12.4759 -0.00569077 -0.00393089)
(12.5762 -0.00324281 -0.00443924)
(12.6766 -0.00484556 -0.00304549)
(12.7826 -0.00330737 -0.00349149)
(12.8921 -0.00421483 -0.00291374)
(13.0113 -0.0033363 -0.00345912)
(13.1337 -0.00361425 -0.0027505)
(13.2612 -0.00238486 -0.00312116)
(13.3781 -0.00257579 -0.0027781)
(13.4828 -0.00177072 -0.00271041)
(13.5817 -0.00148019 -0.00242461)
(13.6751 -0.00111241 -0.00230219)
(13.7643 -0.000484518 -0.00225324)
(13.8488 -0.000297521 -0.00207714)
(13.9291 4.86858e-05 -0.00195722)
(14.0055 0.000223814 -0.00181041)
(14.0786 0.000511047 -0.00170358)
(14.1486 0.000606248 -0.00155436)
(14.2159 0.000747397 -0.00144433)
(14.2809 0.000856639 -0.00133241)
(14.3438 0.00089403 -0.00120847)
(14.4048 0.000947825 -0.00109897)
(14.4643 0.000951598 -0.000983454)
(14.5224 0.000926466 -0.000866195)
(14.5795 0.000885328 -0.000758656)
(14.6358 0.000812254 -0.00064549)
(14.6915 0.000743196 -0.000544166)
(14.7468 0.000661068 -0.000446331)
(14.8018 0.000557305 -0.000341952)
(14.8567 0.000473533 -0.000255001)
(14.9114 0.000379471 -0.000164923)
(14.966 0.00029124 -7.78142e-05)
(15.0205 0.000209184 2.52065e-06)
(15.0749 0.000133139 7.77745e-05)
(15.1292 6.46021e-05 0.000146429)
(15.1835 2.97234e-06 0.00020925)
(15.2377 -5.18783e-05 0.00026644)
(15.2918 -0.000100155 0.000317626)
(15.346 -0.000141825 0.000364388)
(15.4001 -0.000177325 0.000407019)
(15.4543 -0.000207172 0.000446036)
(15.5085 -0.000231917 0.000482244)
(15.5627 -0.000252079 0.000515915)
(15.6169 -0.000267956 0.000547522)
(15.6712 -0.00028047 0.000577794)
(15.7255 -0.000290012 0.000606868)
(15.7798 -0.000297107 0.000635049)
(15.8341 -0.000302219 0.000662628)
(15.8885 -0.000305568 0.00068981)
(15.9429 -0.000307491 0.000716687)
(15.9973 -0.000308372 0.000743425)
(16.0518 -0.000308511 0.000770265)
(16.1062 -0.00030808 0.000797205)
(16.1608 -0.000307237 0.000824311)
(16.2153 -0.000306232 0.000851714)
(16.2699 -0.000305286 0.000879335)
(16.3244 -0.000304391 0.000907122)
(16.3791 -0.000303608 0.000935156)
(16.4337 -0.00030313 0.000963474)
(16.4884 -0.000303061 0.000992035)
(16.5431 -0.000303335 0.00102078)
(16.5979 -0.000304056 0.00104973)
(16.6527 -0.000305245 0.00107888)
(16.7076 -0.000306924 0.00110826)
(16.7625 -0.000308988 0.00113775)
(16.8174 -0.000311504 0.00116728)
(16.8724 -0.000314693 0.00119682)
(16.9275 -0.000318395 0.00122644)
(16.9826 -0.000322421 0.00125619)
(17.0378 -0.000326943 0.00128577)
(17.0931 -0.000331991 0.00131529)
(17.1484 -0.000337376 0.00134486)
(17.2038 -0.000343258 0.00137418)
(17.2593 -0.000349517 0.00140336)
(17.3148 -0.000356055 0.00143233)
(17.3705 -0.000362948 0.00146123)
(17.4263 -0.000370226 0.00149011)
(17.4821 -0.000377803 0.0015187)
(17.538 -0.00038561 0.00154672)
(17.5941 -0.000393632 0.00157422)
(17.6503 -0.000401889 0.00160137)
(17.7065 -0.000410331 0.00162793)
(17.7629 -0.000418785 0.00165404)
(17.8194 -0.000427576 0.0016796)
(17.8761 -0.000436479 0.00170448)
(17.9328 -0.000445423 0.00172881)
(17.9897 -0.000454612 0.00175233)
(18.0468 -0.000463815 0.00177503)
(18.104 -0.000472981 0.00179705)
(18.1613 -0.000482419 0.00181821)
(18.2188 -0.00049196 0.00183834)
(18.2764 -0.000501385 0.00185758)
(18.3342 -0.000510783 0.00187596)
(18.3921 -0.000520404 0.00189332)
(18.4502 -0.000530186 0.00190959)
(18.5085 -0.000539885 0.00192484)
(18.567 -0.000549454 0.00193924)
(18.6256 -0.000559036 0.00195274)
(18.6844 -0.000568688 0.00196524)
(18.7434 -0.000578461 0.00197682)
(18.8025 -0.000588227 0.00198748)
(18.8619 -0.000597921 0.00199738)
(18.9214 -0.000607365 0.00200667)
(18.9812 -0.000616579 0.00201551)
(19.0411 -0.000625935 0.00202401)
(19.1012 -0.000635274 0.00203193)
(19.1616 -0.000644334 0.00203927)
(19.2221 -0.000653133 0.00204624)
(19.2829 -0.000661799 0.00205296)
(19.3439 -0.000670212 0.00205961)
(19.4051 -0.000678248 0.00206617)
(19.4665 -0.000686069 0.00207276)
(19.5282 -0.000693461 0.00207942)
(19.5901 -0.000700513 0.00208617)
(19.6523 -0.000707196 0.00209303)
(19.7147 -0.000713528 0.00209997)
(19.7774 -0.00071949 0.00210695)
(19.8403 -0.000725007 0.00211394)
(19.9035 -0.000730319 0.00212093)
(19.967 -0.000735165 0.00212776)
(20.0308 -0.000739505 0.0021344)
(20.0949 -0.000743835 0.00214096)
(20.1593 -0.000747542 0.00214703)
(20.224 -0.000750837 0.00215266)
(20.2891 -0.000754018 0.00215786)
(20.3545 -0.00075691 0.00216255)
(20.4202 -0.000759415 0.00216653)
(20.4862 -0.000761384 0.00216939)
(20.5527 -0.000763167 0.00217141)
(20.6195 -0.000765232 0.00217324)
(20.6866 -0.000767278 0.00217461)
(20.7542 -0.000769027 0.00217508)
(20.8221 -0.000770517 0.00217474)
(20.8904 -0.000771551 0.00217351)
(20.9591 -0.000772397 0.00217137)
(21.0281 -0.000773276 0.00216856)
(21.0976 -0.000773886 0.00216512)
(21.1676 -0.000774314 0.00216107)
(21.2379 -0.000774599 0.00215645)
(21.3086 -0.000774813 0.00215149)
(21.3798 -0.00077478 0.00214596)
(21.4514 -0.000774445 0.00213995)
(21.5235 -0.000773801 0.00213366)
(21.596 -0.000772956 0.00212713)
(21.6689 -0.00077258 0.00212021)
(21.7423 -0.000771907 0.00211268)
(21.8162 -0.000770421 0.00210501)
(21.8905 -0.000769645 0.00209726)
(21.9653 -0.000768508 0.00208917)
(22.0406 -0.000766583 0.00208112)
(22.1164 -0.000764303 0.00207112)
(22.1927 -0.000762245 0.00206089)
(22.2695 -0.000760872 0.00205209)
(22.3469 -0.000759218 0.00204311)
(22.4247 -0.00075738 0.00203336)
(22.5031 -0.000755409 0.00202272)
(22.582 -0.000753916 0.00201234)
(22.6615 -0.000752562 0.00200073)
(22.7415 -0.000749902 0.00198853)
(22.8221 -0.0007473 0.00197666)
(22.9032 -0.000746075 0.00196341)
(22.985 -0.000744076 0.00194927)
(23.0673 -0.000741016 0.00193523)
(23.1503 -0.000738239 0.00192065)
(23.2338 -0.000736044 0.0019051)
(23.318 -0.000733854 0.00188846)
(23.4028 -0.000731119 0.00187125)
(23.4883 -0.000727842 0.00185341)
(23.5744 -0.000724237 0.00183475)
(23.6612 -0.000721169 0.00181518)
(23.7486 -0.000717949 0.00179463)
(23.8368 -0.00071291 0.00177164)
(23.9257 -0.000708352 0.0017486)
(24.0153 -0.000704443 0.00172643)
(24.1056 -0.000699998 0.00170268)
(24.1966 -0.000695467 0.00167825)
(24.2884 -0.000690615 0.00165276)
(24.381 -0.000684602 0.00162571)
(24.4742 -0.000678827 0.00159791)
(24.5683 -0.000672954 0.00156911)
(24.6632 -0.000666246 0.00153909)
(24.7588 -0.000658738 0.00150853)
(24.8553 -0.000651194 0.00147685)
(24.9525 -0.000643442 0.00144394)
(25.0506 -0.000634511 0.00141043)
(25.1496 -0.000625268 0.00137587)
(25.2494 -0.000615545 0.00134039)
(25.35 -0.000605562 0.00130333)
(25.4515 -0.000595056 0.00126632)
(25.5539 -0.000582866 0.00122744)
(25.6572 -0.00057046 0.00118659)
(25.7614 -0.000557545 0.00114742)
(25.8665 -0.000545196 0.00110766)
(25.9724 -0.000531314 0.00106649)
(26.0793 -0.000516607 0.00102492)
(26.1871 -0.000502253 0.000983028)
(26.2958 -0.000486939 0.000940153)
(26.4054 -0.000471782 0.000896252)
(26.5159 -0.000454997 0.000851995)
(26.6274 -0.000437542 0.000807112)
(26.7398 -0.0004206 0.000762127)
(26.8531 -0.000402387 0.000716874)
(26.9673 -0.000383094 0.000670324)
(27.0825 -0.000364437 0.000624035)
(27.1987 -0.000344803 0.000577165)
(27.3157 -0.000324425 0.00053029)
(27.4337 -0.00030364 0.000481487)
(27.5528 -0.000282444 0.000432602)
(27.6727 -0.00026175 0.000386031)
(27.7937 -0.00024081 0.000338525)
(27.9155 -0.000218212 0.00029052)
(28.0383 -0.000194536 0.000243046)
(28.1619 -0.000172645 0.00019684)
(28.2866 -0.000149892 0.000148332)
(28.4121 -0.000126169 9.95656e-05)
(28.5386 -0.000101667 5.35864e-05)
(28.666 -7.79372e-05 5.57773e-06)
(28.7943 -5.52292e-05 -4.24881e-05)
(28.9236 -2.96251e-05 -8.87158e-05)
(29.0537 -6.15883e-06 -0.000136239)
(29.1848 1.85539e-05 -0.000181412)
(29.3167 4.38345e-05 -0.000226978)
(29.4496 6.82909e-05 -0.00027338)
(29.5834 9.43389e-05 -0.000316215)
(29.718 0.000119325 -0.000359253)
(29.8535 0.000146086 -0.000402498)
(29.9898 0.000171973 -0.000445602)
(30.1269 0.000198669 -0.000489258)
(30.2649 0.000224626 -0.000532574)
(30.4038 0.000249424 -0.000576444)
(30.5435 0.00027687 -0.000619961)
(30.6841 0.000301914 -0.000663229)
(30.8255 0.000325368 -0.000706887)
(30.9677 0.000353108 -0.0007501)
(31.1108 0.000379979 -0.000790652)
(31.2548 0.000403419 -0.000834036)
(31.3996 0.000428029 -0.000878356)
(31.5453 0.000454542 -0.000917008)
(31.6918 0.000481239 -0.000956017)
(31.8391 0.000505853 -0.000996391)
(31.9871 0.00052985 -0.00103501)
(32.1359 0.000555722 -0.00107349)
(32.2856 0.000581095 -0.00111255)
(32.4359 0.000605932 -0.00114915)
(32.5871 0.000630691 -0.00118679)
(32.739 0.000655028 -0.00122409)
(32.8917 0.000680303 -0.00125907)
(33.0452 0.000703149 -0.00129597)
(33.1994 0.000726734 -0.00133315)
(33.3544 0.000750848 -0.00136657)
(33.5101 0.00077394 -0.00140085)
(33.6666 0.000798753 -0.00143439)
(33.8237 0.000821276 -0.00146503)
(33.9816 0.000844728 -0.00149864)
(34.1401 0.000867541 -0.0015306)
(34.2993 0.000889771 -0.00156142)
(34.4593 0.000912874 -0.0015927)
(34.6199 0.000933844 -0.00162262)
(34.7812 0.000954827 -0.00165275)
(34.9431 0.00097694 -0.00168274)
(35.1058 0.000996849 -0.00171177)
(35.2691 0.00101672 -0.00173891)
(35.4331 0.00103929 -0.00176662)
(35.5976 0.00105996 -0.00179441)
(35.7629 0.00107909 -0.00182083)
(35.9287 0.00109839 -0.00184615)
(36.0952 0.00111866 -0.00187137)
(36.2622 0.00113731 -0.00189812)
(36.4299 0.00115729 -0.00192359)
(36.5982 0.00117579 -0.00194727)
(36.767 0.00119312 -0.00197142)
(36.9365 0.00120911 -0.00199474)
(37.1066 0.00122745 -0.00201813)
(37.2771 0.00124622 -0.00204028)
(37.4483 0.00126302 -0.00206349)
(37.62 0.00127916 -0.0020855)
(37.7922 0.00129821 -0.00210651)
(37.9649 0.00131394 -0.00212772)
(38.1381 0.00133055 -0.00214984)
(38.3118 0.00134113 -0.00216875)
(38.486 0.00135756 -0.00218954)
(38.6607 0.00137213 -0.00220971)
(38.8358 0.00139007 -0.00223033)
(39.0114 0.00140256 -0.00224794)
(39.1873 0.00141888 -0.0022685)
(39.3637 0.00143115 -0.002288)
(39.5404 0.00145245 -0.00231042)
(39.7175 0.00146158 -0.00232944)
(39.9058 0.00148091 -0.00236291)
(40.0989 0.00149158 -0.0023891)
(40.2798 0.00151625 -0.00239836)
(40.4491 0.00152116 -0.00239525)
(40.6073 0.00154211 -0.00239807)
(40.7553 0.00154721 -0.00239413)
(40.8937 0.00156527 -0.00239561)
(41.023 0.00156731 -0.00239284)
(41.1439 0.00158782 -0.00239164)
(41.2568 0.00158937 -0.00238835)
(41.3623 0.00160902 -0.00238164)
(41.4609 0.00160692 -0.00238166)
(41.5529 0.0016232 -0.00237166)
(41.6389 0.00162214 -0.00236941)
(41.7191 0.00164094 -0.00236039)
(41.7941 0.00164035 -0.00236568)
(41.864 0.00164977 -0.00234845)
(41.9294 0.00165611 -0.00235443)
(41.9904 0.00166861 -0.00233647)
(42.0473 0.00166734 -0.00235296)
(42.1005 0.00167656 -0.00232601)
(42.1501 0.00167715 -0.00234153)
(42.1964 0.00169093 -0.00230983)
(42.2396 0.00168927 -0.00232867)
(42.2799 0.00170487 -0.00230519)
(42.3176 0.00169973 -0.00232629)
(42.3528 0.0017154 -0.00230415)
(42.3856 0.00169264 -0.00230777)
(42.4162 0.00174112 -0.00230649)
(42.4447 0.00166818 -0.00227274)
(42.4716 0.00177847 -0.00236123)
(42.4961 0.00164233 -0.00217379)
(42.5204 0.00177081 -0.00252089)
(42.5392 0.00162539 -0.00199199)
(42.5705 0.00168231 -0.00270627)
(17.3765 -0.00563059 0.0484341)
(17.1602 -0.0353389 0.130318)
(16.9069 -0.0443698 0.161171)
(16.5876 -0.0475301 0.174486)
(16.2313 -0.0493328 0.193731)
(15.8588 -0.051327 0.194597)
(15.4749 -0.0476803 0.195883)
(15.0809 -0.0470488 0.178446)
(14.6869 -0.041355 0.167874)
(14.299 -0.0399036 0.14593)
(13.9229 -0.0331684 0.120423)
(13.5626 -0.0313495 0.100208)
(13.2276 -0.0246762 0.0757209)
(12.924 -0.0232819 0.0582212)
(12.6614 -0.0175737 0.0365627)
(12.4445 -0.0172255 0.0242785)
(12.2687 -0.0126266 0.0100672)
(12.1329 -0.0135527 0.0043693)
(12.0438 -0.0093692 -0.00298851)
(11.979 -0.00945777 -0.00825163)
(11.9804 -0.00870607 -0.0105975)
(12.0008 -0.0102632 -0.011152)
(12.0441 -0.00608447 -0.0106408)
(12.1111 -0.0108342 -0.00988087)
(12.1918 -0.00543859 -0.00845008)
(12.2833 -0.0100227 -0.00728172)
(12.378 -0.00548446 -0.00570779)
(12.4745 -0.00844767 -0.00506951)
(12.5733 -0.00547763 -0.00429063)
(12.6733 -0.00747145 -0.00354647)
(12.7766 -0.0052949 -0.00345196)
(12.8836 -0.00667711 -0.00317302)
(12.9975 -0.00478129 -0.00346711)
(13.113 -0.00591474 -0.00278277)
(13.2311 -0.00368858 -0.00294563)
(13.338 -0.00395096 -0.0023952)
(13.4335 -0.00272105 -0.00236054)
(13.5234 -0.00239724 -0.00207295)
(13.6084 -0.00181734 -0.00189828)
(13.6895 -0.000953773 -0.00175403)
(13.767 -0.000654853 -0.00160196)
(13.8412 -0.00016478 -0.00146603)
(13.9124 9.51823e-05 -0.00134191)
(13.9812 0.00048502 -0.00122443)
(14.0477 0.000632717 -0.00110505)
(14.1122 0.000834379 -0.00101081)
(14.1751 0.00100372 -0.000918797)
(14.2365 0.00107141 -0.000824931)
(14.2966 0.00115558 -0.000739572)
(14.3556 0.00117482 -0.000654347)
(14.4135 0.00115143 -0.000566471)
(14.4707 0.00110811 -0.000488477)
(14.5274 0.00101329 -0.000405297)
(14.5836 0.000924503 -0.00033034)
(14.6396 0.000816574 -0.000257558)
(14.6954 0.000673969 -0.000177097)
(14.751 0.000561605 -0.000110156)
(14.8065 0.000431986 -3.97974e-05)
(14.862 0.000308957 2.9475e-05)
(14.9172 0.00019362 9.37865e-05)
(14.9724 8.64558e-05 0.000155059)
(15.0275 -9.92156e-06 0.000211952)
(15.0824 -9.65532e-05 0.000264407)
(15.1373 -0.000173231 0.000312643)
(15.192 -0.000240166 0.000356265)
(15.2467 -0.000297557 0.000396653)
(15.3014 -0.000345961 0.000433918)
(15.356 -0.000386237 0.000468555)
(15.4105 -0.000419187 0.000500953)
(15.465 -0.000445475 0.000531569)
(15.5195 -0.000465778 0.000560895)
(15.574 -0.000481361 0.000589181)
(15.6284 -0.000492797 0.000616817)
(15.6829 -0.000500849 0.00064391)
(15.7373 -0.000506304 0.000670745)
(15.7917 -0.000509366 0.000697459)
(15.8461 -0.000510532 0.00072404)
(15.9006 -0.000510448 0.000750703)
(15.955 -0.000509484 0.00077764)
(16.0094 -0.000507909 0.00080483)
(16.0639 -0.000505966 0.000832253)
(16.1183 -0.000503996 0.000859931)
(16.1728 -0.000502231 0.000887836)
(16.2272 -0.000500732 0.000916066)
(16.2817 -0.00049968 0.000944615)
(16.3362 -0.000499226 0.000973373)
(16.3908 -0.000499449 0.00100232)
(16.4453 -0.000500344 0.00103151)
(16.4999 -0.000502019 0.00106091)
(16.5545 -0.00050449 0.00109044)
(16.6092 -0.000507829 0.0011201)
(16.6639 -0.000511892 0.00114976)
(16.7186 -0.000516708 0.00117952)
(16.7734 -0.000522559 0.00120941)
(16.8283 -0.000529213 0.00123925)
(16.8832 -0.000536504 0.00126899)
(16.9381 -0.000544609 0.00129871)
(16.9931 -0.000553497 0.00132834)
(17.0482 -0.000562973 0.00135778)
(17.1034 -0.000573125 0.00138709)
(17.1586 -0.000583941 0.00141614)
(17.214 -0.000595246 0.00144501)
(17.2694 -0.000607111 0.0014737)
(17.3249 -0.000619521 0.00150233)
(17.3804 -0.000632412 0.00153063)
(17.4361 -0.000645635 0.00155828)
(17.4919 -0.000659197 0.00158544)
(17.5478 -0.000673124 0.00161206)
(17.6038 -0.000687293 0.00163817)
(17.6599 -0.00070167 0.00166365)
(17.7162 -0.000716379 0.00168856)
(17.7725 -0.000731276 0.00171284)
(17.829 -0.000746356 0.00173636)
(17.8856 -0.000761632 0.00175913)
(17.9423 -0.00077702 0.00178112)
(17.9992 -0.000792525 0.0018022)
(18.0563 -0.000808225 0.00182244)
(18.1134 -0.000824044 0.0018418)
(18.1707 -0.000839939 0.00186016)
(18.2282 -0.000855845 0.00187754)
(18.2859 -0.000871896 0.00189401)
(18.3436 -0.000888099 0.00190955)
(18.4016 -0.000904392 0.00192409)
(18.4597 -0.000920597 0.00193767)
(18.518 -0.000936771 0.00195034)
(18.5765 -0.000952959 0.00196215)
(18.6351 -0.000969219 0.00197327)
(18.6939 -0.000985449 0.00198358)
(18.7529 -0.00100158 0.00199319)
(18.8121 -0.00101747 0.00200229)
(18.8715 -0.00103305 0.00201092)
(18.9311 -0.00104874 0.00201929)
(18.9909 -0.00106428 0.00202726)
(19.0509 -0.00107927 0.00203473)
(19.1111 -0.00109383 0.00204199)
(19.1715 -0.00110807 0.0020491)
(19.2321 -0.00112176 0.00205616)
(19.2929 -0.00113492 0.00206318)
(19.354 -0.00114762 0.00207022)
(19.4153 -0.00115964 0.00207732)
(19.4768 -0.00117109 0.00208451)
(19.5386 -0.0011819 0.00209172)
(19.6007 -0.00119214 0.00209898)
(19.663 -0.00120169 0.00210621)
(19.7255 -0.00121069 0.00211335)
(19.7884 -0.00121907 0.00212043)
(19.8515 -0.00122698 0.00212721)
(19.915 -0.00123408 0.00213368)
(19.9787 -0.00124072 0.00213998)
(20.0428 -0.00124704 0.00214569)
(20.1071 -0.00125273 0.00215085)
(20.1718 -0.00125773 0.00215553)
(20.2368 -0.0012626 0.00215964)
(20.3022 -0.00126723 0.00216296)
(20.3679 -0.00127102 0.00216514)
(20.434 -0.00127419 0.00216652)
(20.5004 -0.0012777 0.00216782)
(20.5672 -0.00128126 0.00216866)
(20.6344 -0.00128436 0.00216849)
(20.7019 -0.00128706 0.00216745)
(20.7698 -0.00128927 0.00216563)
(20.8381 -0.00129136 0.00216309)
(20.9069 -0.00129337 0.0021599)
(20.976 -0.00129491 0.00215605)
(21.0455 -0.00129618 0.00215179)
(21.1154 -0.00129706 0.00214705)