/*--------------------------------*- C++ -*----------------------------------*\
| =========                 |                                                 |
| \\      /  F ield         | OpenFOAM: The Open Source CFD Toolbox           |
|  \\    /   O peration     | Version:  2.3.1                                 |
|   \\  /    A nd           | Web:      www.OpenFOAM.org                      |
|    \\/     M anipulation  |                                                 |
\*---------------------------------------------------------------------------*/
FoamFile
{
    version     2.0;
    format      ascii;
    class       volScalarField;
    location    "15000/fluid";
    object      yPlus;
}
// * * * * * * * * * * * * * * * * * * * * * * * * * * * * * * * * * * * * * //

dimensions      [0 0 0 0 0 0 0];

internalField   uniform 0;

boundaryField
{
    inlet
    {
        type            calculated;
        value           uniform 0;
    }
    outlet
    {
        type            calculated;
        value           uniform 0;
    }
    middlePlane
    {
        type            symmetryPlane;
    }
    solidContact
    {
        type            calculated;
        value           nonuniform List<scalar> 
17500
(
60.2622
60.2625
60.2642
60.2661
60.2696
60.2771
60.2862
60.3014
60.3268
60.0681
60.0019
60.0039
60.0091
60.0183
60.0324
60.0567
60.0908
60.1432
60.2339
59.4149
59.7222
59.7265
59.7361
59.7514
59.7751
59.8105
59.8603
59.9262
60.0308
58.5684
59.371
59.3764
59.3875
59.4053
59.4315
59.4693
59.5226
59.5922
59.6766
57.4829
58.9862
58.9911
59.0026
59.0209
59.0482
59.0849
59.1399
59.2087
59.2554
56.2882
58.5917
58.597
58.6083
58.6266
58.6537
58.6895
58.7424
58.8107
58.8018
55.0475
58.1885
58.1935
58.2043
58.2219
58.2486
58.2806
58.3326
58.3883
58.3068
53.7751
57.7701
57.7746
57.7843
57.8004
57.8246
57.8544
57.9003
57.9509
57.767
52.4893
57.3466
57.3502
57.3588
57.3735
57.3957
57.4205
57.4635
57.4946
57.1955
51.2183
56.922
56.9248
56.932
56.9441
56.9634
56.9867
57.0224
57.0373
56.6076
49.9834
56.4997
56.5011
56.5069
56.5181
56.535
56.5508
56.584
56.5717
56.014
48.79
56.08
56.081
56.0854
56.0942
56.1077
56.1238
56.1458
56.1195
55.4341
47.6477
55.6783
55.6777
55.6807
55.6882
55.7005
55.7064
55.7301
55.6804
54.8749
46.5599
55.2975
55.2979
55.3003
55.3057
55.3138
55.3223
55.3366
55.2823
54.3482
45.5346
54.9644
54.9628
54.962
54.9668
54.9757
54.973
54.9944
54.9343
53.8424
44.5757
54.6768
54.6763
54.6777
54.68
54.6843
54.6866
54.7023
54.6424
53.3592
43.6919
54.4449
54.4425
54.4398
54.4412
54.4474
54.4435
54.4662
54.3966
52.9086
42.9026
54.2495
54.2494
54.2504
54.2521
54.2543
54.256
54.2845
54.1935
52.4906
42.202
54.1336
54.1307
54.1277
54.1269
54.1321
54.1346
54.1549
54.0244
52.1084
41.5928
54.0274
54.0271
54.0272
54.0289
54.026
54.0388
54.081
53.8892
51.765
41.071
54.049
54.0482
54.047
54.0437
54.0521
54.0562
54.0396
53.7727
51.4574
40.6307
54.0826
54.083
54.0859
54.0904
54.0983
54.0944
54.0626
53.6804
51.1919
40.2713
54.1586
54.1575
54.1559
54.1642
54.1628
54.1573
54.093
53.5995
50.9614
39.9875
54.255
54.2565
54.2625
54.2762
54.27
54.2475
54.1376
53.5311
50.7717
39.776
54.3834
54.3837
54.3844
54.3886
54.3857
54.3473
54.1839
53.4617
50.6053
39.6141
54.5054
54.5082
54.5161
54.5245
54.5105
54.4485
54.2255
53.3918
50.4625
39.4902
54.6338
54.6365
54.6399
54.6426
54.6219
54.5348
54.2476
53.309
50.3251
39.3852
54.7404
54.7454
54.7526
54.753
54.7225
54.606
54.2497
53.2188
50.1941
39.2917
54.8452
54.8499
54.8553
54.8491
54.8019
54.6506
54.2254
53.1091
50.0627
39.21
54.9325
54.9384
54.9442
54.9333
54.8673
54.6755
54.1815
52.9861
49.931
39.128
55.0171
55.0231
55.0243
55.0024
54.91
54.6728
54.114
52.8513
49.7893
39.042
55.0957
55.0997
55.0964
55.06
54.9384
54.6543
54.0351
52.7153
49.6583
38.9585
55.1794
55.1816
55.1681
55.109
54.9504
54.6159
53.9434
52.579
49.527
38.8817
55.2596
55.2542
55.227
55.1437
54.9466
54.5668
53.8476
52.4463
49.4013
38.8081
55.3359
55.3222
55.2758
55.1612
54.9238
54.5017
53.7453
52.318
49.2815
38.7339
55.3929
55.3709
55.3043
55.1608
54.8894
54.4343
53.6494
52.2049
49.1764
38.6689
55.4373
55.4053
55.3204
55.1508
54.8502
54.3691
53.564
52.1091
49.09
38.6168
55.4708
55.4294
55.3267
55.134
54.8087
54.306
53.485
52.0225
49.0132
38.5701
55.4946
55.4438
55.3248
55.1116
54.7655
54.2456
53.4123
51.9448
48.9444
38.528
55.5121
55.4528
55.3181
55.0863
54.7224
54.1892
53.3458
51.8752
48.884
38.4914
55.5223
55.4552
55.3074
55.0603
54.6815
54.137
53.2859
51.8136
48.8315
38.4601
55.5266
55.4527
55.2938
55.0333
54.6424
54.0888
53.2319
51.7588
48.7846
38.4326
55.5253
55.4461
55.2779
55.0071
54.606
54.045
53.1838
51.7113
48.7448
38.4098
55.5202
55.4366
55.2612
54.9819
54.573
54.0066
53.1422
51.6705
48.7115
38.3923
55.5119
55.4249
55.244
54.9579
54.5431
53.9723
53.106
51.6361
48.6839
38.3786
55.5009
55.4118
55.2265
54.936
54.5163
53.943
53.0753
51.6074
48.6623
38.3701
55.4884
55.3977
55.2096
54.9161
54.4933
53.9181
53.0503
51.5847
48.6463
38.3665
55.4746
55.3828
55.1931
54.8978
54.4733
53.8975
53.0301
51.5675
48.6355
38.3672
55.4596
55.3677
55.1778
54.8814
54.4564
53.8811
53.0145
51.5552
48.6299
38.3722
55.4445
55.3529
55.1631
54.867
54.4426
53.8681
53.0033
51.5475
48.6291
38.3819
55.4291
55.3377
55.1489
54.8543
54.4313
53.8588
52.9959
51.5445
48.6327
38.3955
55.4134
55.3234
55.1359
54.8431
54.4222
53.8524
52.9922
51.5451
48.6402
38.4134
55.3986
55.3095
55.1242
54.8337
54.4155
53.8489
52.9921
51.5498
48.6519
38.4354
55.3838
55.296
55.1131
54.8255
54.4106
53.8478
52.9948
51.5577
48.6667
38.4603
55.3694
55.2832
55.1027
54.8184
54.4071
53.8484
52.9997
51.568
48.6846
38.4881
55.3558
55.2707
55.093
54.8119
54.4046
53.8504
53.0067
51.5804
48.7044
38.5175
55.342
55.2586
55.0832
54.806
54.4028
53.8535
53.0149
51.5943
48.7256
38.5478
55.3282
55.2462
55.0736
54.7999
54.4011
53.8569
53.0231
51.6084
48.747
38.578
55.3141
55.2335
55.0637
54.7936
54.3988
53.8598
53.032
51.623
48.7688
38.6078
55.2997
55.2203
55.0529
54.7866
54.3964
53.8623
53.0398
51.6368
48.7894
38.636
55.2845
55.2065
55.0417
54.7787
54.3929
53.8635
53.0468
51.6493
48.8088
38.6627
55.2687
55.1921
55.0298
54.7701
54.3883
53.864
53.0525
51.6609
48.8267
38.6875
55.2523
55.1769
55.0169
54.7606
54.3823
53.863
53.0566
51.6707
48.8431
38.7101
55.2352
55.161
55.0034
54.7498
54.3757
53.8609
53.0595
51.6793
48.8574
38.7309
55.2174
55.1444
54.9886
54.7384
54.3675
53.8572
53.0605
51.6858
48.8697
38.7495
55.1994
55.1272
54.9732
54.7257
54.3584
53.8519
53.06
51.6908
48.8802
38.7662
55.1806
55.1094
54.9574
54.7124
54.3483
53.8457
53.0581
51.6942
48.8889
38.7811
55.1614
55.0911
54.941
54.698
54.3369
53.8383
53.0548
51.6959
48.8955
38.7942
55.1419
55.0725
54.9236
54.6832
54.325
53.8296
53.0501
51.6962
48.9006
38.8056
55.1221
55.0536
54.9062
54.6677
54.312
53.8201
53.0442
51.6951
48.9041
38.8153
55.1019
55.0339
54.8879
54.6516
54.2984
53.8094
53.0371
51.6925
48.9062
38.8235
55.0818
55.0145
54.8697
54.6348
54.2839
53.7979
53.0289
51.6889
48.9066
38.8304
55.0613
54.9948
54.8509
54.618
54.269
53.7858
53.0201
51.6843
48.9063
38.8363
55.041
54.9748
54.8321
54.6003
54.2534
53.7731
53.0103
51.6786
48.9046
38.8409
55.0201
54.9547
54.813
54.5826
54.2375
53.7593
52.9997
51.6719
48.9019
38.8445
54.9995
54.9344
54.7935
54.5646
54.2213
53.7454
52.9884
51.6647
48.898
38.8471
54.9789
54.9141
54.774
54.5463
54.2047
53.7307
52.9765
51.6564
48.8936
38.8488
54.9584
54.8939
54.7547
54.5281
54.1878
53.7162
52.9642
51.6478
48.8882
38.85
54.9376
54.8738
54.7352
54.5096
54.1707
53.7009
52.9515
51.6386
48.8825
38.8503
54.9175
54.8538
54.7157
54.4912
54.1536
53.6856
52.9385
51.629
48.8762
38.8502
54.8972
54.8338
54.6966
54.4728
54.1365
53.6702
52.9252
51.6188
48.8691
38.8494
54.877
54.8137
54.677
54.4543
54.1191
53.6542
52.9116
51.6084
48.8617
38.8481
54.8569
54.7942
54.6578
54.4355
54.1016
53.6386
52.8977
51.5975
48.8536
38.8463
54.837
54.7743
54.6385
54.4173
54.0842
53.6225
52.8838
51.5864
48.8452
38.844
54.8172
54.7548
54.6194
54.3988
54.0669
53.6065
52.8695
51.575
48.8367
38.8415
54.7979
54.7355
54.6006
54.3807
54.0495
53.5907
52.8555
51.5638
48.8278
38.8386
54.7784
54.7165
54.582
54.3626
54.0322
53.5748
52.8412
51.5522
48.8186
38.8355
54.7594
54.6975
54.5634
54.3448
54.0153
53.5587
52.8271
51.5405
48.8094
38.832
54.7407
54.6789
54.5451
54.3269
53.9985
53.5431
52.8127
51.5287
48.7996
38.8283
54.7221
54.6603
54.5269
54.3094
53.9814
53.5272
52.7985
51.5169
48.7899
38.8243
54.7038
54.6425
54.5094
54.2918
53.9649
53.5118
52.7844
51.505
48.78
38.8204
54.6857
54.6244
54.4917
54.2746
53.9483
53.496
52.7702
51.493
48.77
38.816
54.6681
54.6067
54.4743
54.2578
53.9321
53.4808
52.7564
51.481
48.7599
38.8116
54.6505
54.5895
54.4573
54.2412
53.916
53.4659
52.7425
51.4692
48.75
38.8072
54.6331
54.5723
54.4404
54.2247
53.9001
53.4508
52.7287
51.4572
48.7396
38.8024
54.6163
54.5555
54.4239
54.2084
53.8848
53.4359
52.715
51.4456
48.7293
38.7978
54.5998
54.5391
54.4074
54.1927
53.8693
53.4214
52.7016
51.434
48.7191
38.793
54.5835
54.523
54.3915
54.177
53.8542
53.4071
52.6881
51.4224
48.7089
38.7881
54.5674
54.507
54.3757
54.1615
53.8391
53.3927
52.6751
51.4105
48.6984
38.7831
54.5517
54.4914
54.3603
54.1464
53.8244
53.3789
52.662
51.3994
48.6883
38.7783
54.5363
54.4761
54.3451
54.1316
53.8102
53.3651
52.6493
51.3879
48.6779
38.7731
54.5213
54.461
54.3304
54.117
53.7959
53.3515
52.6367
51.3767
48.6678
38.7681
54.5066
54.4464
54.3159
54.1027
53.7821
53.3383
52.6241
51.3655
48.6575
38.763
54.4921
54.4321
54.3016
54.0887
53.7685
53.3252
52.6119
51.3545
48.6473
38.7579
54.4779
54.4179
54.2876
54.075
53.7551
53.3124
52.5997
51.3435
48.6372
38.7528
54.4641
54.4041
54.2739
54.0616
53.742
53.2997
52.5878
51.3327
48.6271
38.7477
54.4507
54.3908
54.2607
54.0484
53.7293
53.2875
52.5761
51.3222
48.6172
38.7427
54.4375
54.3777
54.2476
54.0356
53.7167
53.2753
52.5645
51.3117
48.6071
38.7376
54.4246
54.3647
54.2349
54.0231
53.7044
53.2635
52.5532
51.3012
48.5973
38.7325
54.412
54.3521
54.2224
54.0108
53.6924
53.2516
52.5422
51.291
48.5873
38.7275
54.3999
54.34
54.2104
53.9989
53.6807
53.2404
52.5313
51.281
48.5777
38.7226
54.3879
54.3282
54.1985
53.9871
53.6692
53.2292
52.5206
51.2711
48.5682
38.7177
54.3764
54.3165
54.1871
53.9758
53.6581
53.2182
52.5101
51.2615
48.5586
38.7129
54.3649
54.3052
54.1758
53.9647
53.6471
53.2076
52.4998
51.2517
48.5491
38.7081
54.354
54.2944
54.1649
53.9539
53.6365
53.1972
52.4897
51.2423
48.5399
38.7034
54.3433
54.2837
54.1542
53.9433
53.6261
53.187
52.4799
51.2329
48.5307
38.6987
54.333
54.2734
54.1441
53.9331
53.616
53.1771
52.4702
51.224
48.5216
38.6942
54.3229
54.2634
54.134
53.9232
53.6063
53.1675
52.4607
51.215
48.5126
38.6897
54.3132
54.2536
54.1242
53.9135
53.5967
53.1579
52.4515
51.2062
48.5038
38.6852
54.3038
54.2442
54.1149
53.9042
53.5875
53.1488
52.4425
51.1977
48.4952
38.681
54.2947
54.2351
54.1059
53.8952
53.5784
53.1399
52.4338
51.1893
48.4866
38.6768
54.2859
54.2263
54.097
53.8864
53.5696
53.1312
52.4251
51.1811
48.4783
38.6727
54.2774
54.2178
54.0886
53.8778
53.5612
53.1228
52.4168
51.1732
48.4701
38.6687
54.2692
54.2096
54.0803
53.8696
53.553
53.1146
52.4087
51.1654
48.462
38.6648
54.2613
54.2017
54.0724
53.8617
53.5451
53.1066
52.4007
51.1576
48.4541
38.6611
54.2538
54.1941
54.0648
53.854
53.5374
53.0989
52.3931
51.1503
48.4464
38.6574
54.2464
54.1868
54.0574
53.8466
53.5299
53.0915
52.3857
51.143
48.439
38.6539
54.2394
54.1798
54.0504
53.8396
53.5229
53.0843
52.3784
51.1361
48.4316
38.6505
54.2328
54.1731
54.0436
53.8328
53.516
53.0772
52.3715
51.1293
48.4244
38.6473
54.2263
54.1665
54.0371
53.8261
53.5093
53.0705
52.3647
51.1227
48.4174
38.6441
54.2202
54.1604
54.0309
53.8198
53.503
53.0641
52.3581
51.1163
48.4107
38.6412
54.2143
54.1545
54.0249
53.8139
53.4969
53.0578
52.3519
51.11
48.404
38.6384
54.2087
54.1488
54.0193
53.8081
53.491
53.052
52.3459
51.1042
48.3975
38.6357
54.2034
54.1435
54.0138
53.8025
53.4854
53.0461
52.34
51.0984
48.3912
38.6332
54.1984
54.1384
54.0087
53.7973
53.48
53.0406
52.3345
51.0928
48.3853
38.6308
54.1936
54.1336
54.0038
53.7923
53.4749
53.0355
52.3292
51.0876
48.3795
38.6286
54.1891
54.129
53.9991
53.7876
53.47
53.0303
52.3241
51.0825
48.3738
38.6265
54.1848
54.1247
53.9947
53.783
53.4655
53.0256
52.3192
51.0776
48.3683
38.6245
54.1808
54.1206
53.9906
53.7788
53.4613
53.0211
52.3146
51.0731
48.3631
38.6228
54.177
54.1169
53.9868
53.775
53.4572
53.0169
52.3102
51.0687
48.3582
38.6212
54.1735
54.1134
53.9831
53.7712
53.4533
53.013
52.3061
51.0644
48.3533
38.6197
54.1704
54.1101
53.9798
53.7677
53.4498
53.0092
52.3023
51.0606
48.3488
38.6184
54.1674
54.1071
53.9767
53.7645
53.4466
53.0058
52.2986
51.0567
48.3444
38.6173
54.1647
54.1044
53.9739
53.7616
53.4436
53.0028
52.2954
51.0533
48.3402
38.6164
54.1622
54.1018
53.9712
53.7591
53.4408
52.9998
52.2922
51.0502
48.3363
38.6156
54.1599
54.0995
53.969
53.7565
53.4382
52.997
52.2893
51.0472
48.3325
38.615
54.158
54.0975
53.9669
53.7544
53.4361
52.9947
52.2868
51.0444
48.3291
38.6145
54.1563
54.0958
53.9651
53.7526
53.434
52.9924
52.2843
51.0419
48.3258
38.6142
54.1548
54.0943
53.9636
53.7509
53.4323
52.9906
52.2822
51.0395
48.3227
38.6142
54.1536
54.093
53.9623
53.7495
53.4309
52.9889
52.2803
51.0374
48.3198
38.6142
54.1527
54.0921
53.9612
53.7485
53.4296
52.9875
52.2787
51.0356
48.3172
38.6143
54.152
54.0915
53.9605
53.7476
53.4288
52.9864
52.2773
51.0339
48.3149
38.6148
54.1516
54.0911
53.96
53.7471
53.4281
52.9855
52.2762
51.0325
48.3127
38.6154
54.1515
54.0909
53.9598
53.7467
53.4276
52.9849
52.2753
51.0313
48.3106
38.616
54.1516
54.0908
53.9598
53.7468
53.4275
52.9844
52.2746
51.0305
48.309
38.6168
54.1519
54.0912
53.9601
53.747
53.4275
52.9843
52.2741
51.0297
48.3075
38.6178
54.1525
54.0918
53.9606
53.7473
53.4279
52.9844
52.2739
51.0291
48.3062
38.6191
54.1533
54.0925
53.9613
53.748
53.4284
52.9846
52.2739
51.0289
48.3051
38.6205
54.1544
54.0937
53.9625
53.749
53.4293
52.9852
52.2743
51.0289
48.3042
38.6221
54.1558
54.095
53.9637
53.7501
53.4302
52.9861
52.2747
51.029
48.3036
38.6237
54.1574
54.0966
53.9652
53.7515
53.4316
52.9871
52.2754
51.0294
48.3032
38.6255
54.1591
54.0983
53.9668
53.7532
53.4331
52.9883
52.2763
51.0299
48.3028
38.6274
54.1612
54.1003
53.9689
53.7551
53.4348
52.9897
52.2774
51.0308
48.3029
38.6296
54.1635
54.1025
53.9711
53.7572
53.4367
52.9915
52.2789
51.0318
48.3031
38.6318
54.1659
54.1051
53.9734
53.7595
53.4388
52.9933
52.2803
51.0329
48.3034
38.6342
54.1687
54.1077
53.976
53.762
53.4412
52.9955
52.2821
51.0343
48.304
38.6367
54.1716
54.1106
53.9789
53.7647
53.4438
52.9978
52.2841
51.036
48.3047
38.6393
54.1747
54.1137
53.982
53.7677
53.4466
53.0002
52.2863
51.0378
48.3057
38.6423
54.1781
54.117
53.9852
53.7709
53.4497
53.003
52.2887
51.0398
48.3068
38.6452
54.1817
54.1207
53.9888
53.7743
53.4529
53.006
52.2914
51.0421
48.3082
38.6484
54.1854
54.1244
53.9925
53.7778
53.4563
53.0091
52.2941
51.0443
48.3097
38.6514
54.1894
54.1283
53.9963
53.7816
53.46
53.0125
52.2971
51.0469
48.3114
38.655
54.1936
54.1325
54.0004
53.7856
53.4639
53.016
52.3003
51.0498
48.3133
38.6584
54.198
54.1369
54.0047
53.7898
53.4679
53.0199
52.3037
51.0528
48.3155
38.6619
54.2025
54.1413
54.0093
53.7942
53.4722
53.0239
52.3073
51.056
48.3178
38.6657
54.2073
54.1462
54.0141
53.799
53.4766
53.0279
52.3111
51.0593
48.3202
38.6697
54.2124
54.1512
54.019
53.8037
53.4814
53.0324
52.3152
51.0629
48.3229
38.6736
54.2177
54.1565
54.0242
53.8089
53.4863
53.0371
52.3195
51.0667
48.326
38.678
54.2231
54.1619
54.0296
53.8142
53.4915
53.042
52.324
51.0709
48.329
38.6824
54.229
54.1676
54.0353
53.8199
53.497
53.0472
52.3288
51.0752
48.3326
38.6871
54.2349
54.1736
54.0412
53.8256
53.5026
53.0525
52.3338
51.0797
48.3361
38.6918
54.2412
54.1798
54.0475
53.8317
53.5086
53.0581
52.3391
51.0845
48.3401
38.6966
54.2477
54.1864
54.0538
53.8381
53.5148
53.064
52.3446
51.0895
48.3441
38.7017
54.2545
54.1931
54.0605
53.8448
53.5214
53.0703
52.3504
51.0948
48.3485
38.7069
54.2615
54.2002
54.0676
53.8517
53.528
53.0768
52.3564
51.1004
48.3531
38.7125
54.2689
54.2076
54.075
53.859
53.5352
53.0836
52.363
51.1063
48.3581
38.7181
54.2767
54.2154
54.0827
53.8666
53.5426
53.0908
52.3697
51.1126
48.3634
38.7242
54.2848
54.2234
54.0907
53.8746
53.5505
53.0982
52.3768
51.1191
48.3689
38.7304
54.2934
54.2319
54.0993
53.8829
53.5587
53.1063
52.3842
51.126
48.3748
38.7368
54.3022
54.2408
54.108
53.8916
53.5673
53.1144
52.3921
51.1334
48.3812
38.7435
54.3114
54.2501
54.1173
53.9009
53.5762
53.1232
52.4003
51.141
48.3879
38.7507
54.3213
54.2598
54.1271
53.9105
53.5858
53.1323
52.4091
51.1493
48.395
38.7581
54.3315
54.27
54.1372
53.9205
53.5957
53.142
52.4182
51.1578
48.4026
38.7659
54.3422
54.2807
54.1479
53.9312
53.6061
53.152
52.428
51.1669
48.4106
38.774
54.3534
54.2921
54.1591
53.9423
53.6171
53.1627
52.4382
51.1765
48.4192
38.7825
54.3652
54.3038
54.1708
53.9539
53.6287
53.1738
52.4488
51.1866
48.4282
38.7913
54.3777
54.3162
54.1832
53.9662
53.6407
53.1856
52.4601
51.1973
48.4378
38.8006
54.3906
54.3291
54.1962
53.9791
53.6533
53.198
52.472
51.2085
48.4479
38.8105
54.4043
54.3429
54.2098
53.9926
53.6667
53.211
52.4846
51.2205
48.4587
38.8208
54.4187
54.3573
54.2242
54.0068
53.6808
53.2247
52.4979
51.233
48.4701
38.8316
54.4337
54.3723
54.2391
54.0218
53.6955
53.2391
52.5117
51.2463
48.4823
38.843
54.4496
54.3881
54.255
54.0374
53.711
53.2543
52.5265
51.2603
48.495
38.855
54.4662
54.4046
54.2715
54.0539
53.7273
53.2701
52.5418
51.2751
48.5084
38.8673
54.4835
54.4219
54.2887
54.071
53.7443
53.2868
52.5578
51.2904
48.5225
38.8803
54.5016
54.4401
54.3069
54.0891
53.7621
53.3042
52.5749
51.3066
48.5375
38.8938
54.5206
54.4591
54.3258
54.1078
53.7807
53.3225
52.5927
51.3237
48.5532
38.9081
54.5406
54.479
54.3457
54.1276
53.8003
53.3417
52.6113
51.3416
48.5696
38.923
54.5614
54.4998
54.3665
54.1483
53.8207
53.3618
52.6308
51.3603
48.587
38.9383
54.5831
54.5215
54.388
54.1698
53.8421
53.3828
52.6513
51.3799
48.6051
38.9545
54.6058
54.5442
54.4107
54.1923
53.8644
53.4046
52.6727
51.4004
48.6241
38.9711
54.6294
54.5678
54.4343
54.2159
53.8877
53.4276
52.6949
51.422
48.644
38.9886
54.6542
54.5925
54.4589
54.2404
53.9119
53.4515
52.7182
51.4443
48.6648
39.0068
54.6798
54.6182
54.4845
54.2659
53.9372
53.4763
52.7424
51.4677
48.6864
39.0258
54.7065
54.645
54.5112
54.2924
53.9634
53.5022
52.7677
51.492
48.7091
39.0454
54.7344
54.6727
54.5389
54.3199
53.9908
53.529
52.794
51.5174
48.7326
39.0657
54.7632
54.7015
54.5677
54.3487
54.0192
53.557
52.8213
51.5438
48.7572
39.0868
54.7933
54.7316
54.5977
54.3784
54.0486
53.5861
52.8497
51.5711
48.7827
39.1085
54.8244
54.7626
54.6285
54.4092
54.0794
53.6162
52.8793
51.5996
48.8092
39.1312
54.8566
54.7949
54.6608
54.4412
54.111
53.6475
52.9098
51.629
48.8367
39.1547
54.89
54.8282
54.6939
54.4743
54.1439
53.6797
52.9414
51.6596
48.8651
39.1789
54.9243
54.8625
54.7283
54.5085
54.1777
53.7132
52.974
51.6912
48.8946
39.2037
54.96
54.8981
54.7638
54.5437
54.2127
53.7477
53.0078
51.7237
48.925
39.2293
54.9966
54.9346
54.8003
54.5801
54.2488
53.7832
53.0425
51.7573
48.9563
39.2556
55.0345
54.9725
54.838
54.6176
54.2858
53.8199
53.0784
51.792
48.9886
39.2826
55.0734
55.0113
54.8768
54.6562
54.3242
53.8576
53.1154
51.8277
49.0219
39.3104
55.1134
55.0513
54.9167
54.6958
54.3635
53.8964
53.1533
51.8644
49.0561
39.3388
55.1547
55.0925
54.9577
54.7367
54.4041
53.9363
53.1924
51.9021
49.0913
39.368
55.1968
55.1347
54.9998
54.7786
54.4456
53.9773
53.2324
51.9409
49.1274
39.3979
55.2403
55.1781
55.0429
54.8215
54.4882
54.0193
53.2736
51.9805
49.1645
39.4283
55.2848
55.2225
55.0874
54.8656
54.5318
54.0624
53.3156
52.0213
49.2025
39.4596
55.3304
55.268
55.1326
54.9107
54.5766
54.1064
53.3588
52.0629
49.2413
39.4915
55.3769
55.3147
55.1791
54.957
54.6223
54.1516
53.403
52.1056
49.2811
39.5242
55.4247
55.3622
55.2266
55.0041
54.6692
54.1978
53.4481
52.149
49.3218
39.5573
55.4734
55.4109
55.2752
55.0524
54.717
54.2449
53.4942
52.1936
49.3632
39.5913
55.5234
55.4608
55.3247
55.1017
54.7659
54.293
53.5414
52.239
49.4058
39.626
55.5743
55.5116
55.3755
55.1521
54.8157
54.3423
53.5895
52.2854
49.4491
39.6613
55.6262
55.5635
55.4271
55.2034
54.8667
54.3924
53.6386
52.3327
49.4933
39.6972
55.6791
55.6163
55.4797
55.2557
54.9184
54.4435
53.6884
52.3808
49.5382
39.7335
55.733
55.67
55.5333
55.309
54.9712
54.4954
53.7393
52.4299
49.5838
39.7703
55.7879
55.7247
55.5878
55.3631
55.0248
54.5484
53.7909
52.4797
49.6303
39.8079
55.8435
55.7804
55.6432
55.4182
55.0794
54.602
53.8435
52.5302
49.6774
39.8459
55.9003
55.8369
55.6995
55.4741
55.1348
54.6566
53.8967
52.5816
49.7254
39.8844
55.9577
55.8943
55.7567
55.5309
55.191
54.7121
53.9508
52.6337
49.7739
39.9234
56.0162
55.9526
55.8147
55.5886
55.2482
54.7682
54.0058
52.6867
49.8233
39.963
56.0754
56.0118
55.8737
55.6471
55.3059
54.8253
54.0614
52.7403
49.8733
40.003
56.1355
56.0718
55.9333
55.7065
55.3647
54.8829
54.1178
52.7946
49.9239
40.0435
56.1965
56.1326
55.994
55.7666
55.4241
54.9415
54.1749
52.8499
49.9752
40.0845
56.2582
56.1941
56.0552
55.8274
55.4843
55.0007
54.2328
52.9055
50.0272
40.1258
56.3207
56.2565
56.1173
55.8889
55.5452
55.0607
54.2913
52.9619
50.0797
40.1678
56.3839
56.3196
56.18
55.9513
55.6068
55.1214
54.3506
53.0191
50.1329
40.2102
56.4478
56.3833
56.2435
56.0143
55.6693
55.1826
54.4105
53.0768
50.1866
40.253
56.5126
56.4479
56.3077
56.078
55.7322
55.2448
54.4711
53.1353
50.241
40.2962
56.5777
56.5129
56.3725
56.1424
55.7958
55.3073
54.5323
53.1942
50.2958
40.3396
56.6436
56.5787
56.4379
56.2071
55.86
55.3705
54.594
53.2537
50.3511
40.3835
56.7101
56.645
56.5039
56.2727
55.9247
55.4343
54.6562
53.3138
50.4067
40.4277
56.7772
56.7118
56.5704
56.3389
55.9902
55.4986
54.7192
53.3741
50.4631
40.4722
56.8449
56.7795
56.6376
56.4054
56.0562
55.5637
54.7825
53.4352
50.5198
40.517
56.9131
56.8474
56.7054
56.4727
56.1226
55.629
54.8464
53.4966
50.5768
40.562
56.9819
56.9161
56.7736
56.5404
56.1897
55.6949
54.9108
53.5587
50.6344
40.6073
57.0512
56.9853
56.8424
56.6087
56.2571
55.7614
54.9756
53.6211
50.6923
40.6529
57.121
57.0548
56.9117
56.6775
56.3252
55.8282
55.0408
53.6839
50.7505
40.6987
57.1915
57.125
56.9814
56.7467
56.3936
55.8956
55.1066
53.7472
50.8092
40.7448
57.2623
57.1957
57.0519
56.8165
56.4625
55.9634
55.1727
53.8108
50.8683
40.7912
57.3336
57.2668
57.1226
56.8867
56.532
56.0316
55.2394
53.8749
50.9278
40.8381
57.4054
57.3384
57.1938
56.9573
56.6018
56.1004
55.3064
53.9394
50.9876
40.885
57.4776
57.4105
57.2655
57.0284
56.672
56.1694
55.3737
54.0041
51.0476
40.932
57.5501
57.4828
57.3374
57.0998
56.7426
56.2387
55.4415
54.0691
51.108
40.9792
57.6232
57.5556
57.4097
57.1715
56.8135
56.3085
55.5094
54.1347
51.1686
41.0266
57.6963
57.6286
57.4824
57.2436
56.8847
56.3785
55.5776
54.2002
51.2293
41.074
57.7699
57.702
57.5553
57.316
56.9563
56.4488
55.6462
54.266
51.2904
41.1217
57.8438
57.7757
57.6287
57.3885
57.028
56.5194
55.7149
54.3323
51.3516
41.1694
57.918
57.8496
57.7022
57.4616
57.1
56.5903
55.7841
54.3985
51.4131
41.2172
57.9924
57.9238
57.7761
57.5348
57.1725
56.6613
55.8533
54.465
51.4747
41.2652
58.0672
57.9984
57.8501
57.6082
57.2451
56.7327
55.9229
54.5319
51.5366
41.3134
58.1421
58.0732
57.9246
57.682
57.3178
56.8043
55.9925
54.5989
51.5985
41.3615
58.2173
58.1481
57.9991
57.7559
57.391
56.8759
56.0626
54.666
51.6607
41.4099
58.2929
58.2234
58.0739
57.8301
57.4642
56.9481
56.1326
54.7335
51.723
41.4584
58.3684
58.2988
58.1489
57.9045
57.5375
57.0201
56.203
54.801
51.7856
41.5069
58.4442
58.3743
58.224
57.979
57.6112
57.0924
56.2734
54.8684
51.8481
41.5553
58.5202
58.4501
58.2992
58.0536
57.6849
57.1649
56.344
54.9363
51.9107
41.6038
58.5963
58.526
58.3747
58.1283
57.7587
57.2374
56.4146
55.0041
51.9733
41.6524
58.6723
58.6019
58.4503
58.2033
57.8327
57.31
56.4854
55.0719
52.0362
41.7009
58.7486
58.6779
58.5258
58.2781
57.9068
57.3826
56.5561
55.1398
52.0989
41.7494
58.8251
58.7542
58.6016
58.3532
57.9807
57.4555
56.6269
55.2079
52.1617
41.798
58.9014
58.8304
58.6774
58.4284
58.055
57.5282
56.6979
55.2758
52.2247
41.8465
58.978
58.9066
58.7532
58.5036
58.1293
57.6011
56.7689
55.344
52.2876
41.8952
59.0547
58.983
58.8292
58.5788
58.2036
57.6742
56.8398
55.4121
52.3504
41.9438
59.1313
59.0595
58.9053
58.6542
58.2779
57.7472
56.911
55.4803
52.4135
41.9922
59.208
59.1359
58.9813
58.7297
58.3524
57.8202
56.982
55.5485
52.4766
42.0409
59.2849
59.2125
59.0573
58.8049
58.4269
57.8933
57.0532
55.6167
52.5394
42.0894
59.3616
59.289
59.1335
58.8805
58.5012
57.9664
57.1244
55.6848
52.6025
42.1378
59.4382
59.3655
59.2095
58.9558
58.5757
58.0394
57.1954
55.753
52.6654
42.1862
59.515
59.442
59.2855
59.0311
58.6501
58.1125
57.2664
55.8212
52.7282
42.2346
59.5918
59.5187
59.3616
59.1066
58.7245
58.1856
57.3375
55.8892
52.791
42.2829
59.6685
59.5951
59.4377
59.182
58.7989
58.2585
57.4086
55.9573
52.8539
42.3311
59.7452
59.6715
59.5138
59.2574
58.8734
58.3315
57.4796
56.0254
52.9167
42.3793
59.822
59.7482
59.5899
59.3326
58.9477
58.4045
57.5505
56.0934
52.9794
42.4274
59.8986
59.8246
59.6659
59.4081
59.022
58.4775
57.6215
56.1613
53.0421
42.4755
59.9752
59.9009
59.7419
59.4834
59.0965
58.5503
57.6925
56.2293
53.1049
42.5236
60.052
59.9775
59.8178
59.5587
59.1707
58.6234
57.7634
56.2974
53.1674
42.5716
60.1288
60.054
59.8939
59.634
59.245
58.6964
57.8343
56.3652
53.2302
42.6195
60.2054
60.1304
59.97
59.7094
59.3194
58.7692
57.9052
56.433
53.2928
42.6674
60.282
60.2067
60.0459
59.7847
59.3937
58.842
57.9761
56.501
53.3552
42.7153
60.3587
60.2833
60.1219
59.8599
59.4679
58.915
58.0468
56.5688
53.4177
42.763
60.4353
60.3597
60.1979
59.9353
59.5422
58.9878
58.1178
56.6366
53.4803
42.8107
60.5119
60.4361
60.2739
60.0107
59.6166
59.0607
58.1887
56.7045
53.5428
42.8585
60.5887
60.5126
60.3499
60.086
59.6911
59.1337
58.2595
56.7724
53.6052
42.9062
60.6656
60.5892
60.4261
60.1614
59.7654
59.2067
58.3304
56.8403
53.6678
42.9539
60.7424
60.6659
60.5024
60.237
59.84
59.2797
58.4015
56.9082
53.7305
43.0017
60.8194
60.7426
60.5787
60.3127
59.9146
59.3529
58.4726
56.9764
53.7931
43.0495
60.8966
60.8196
60.6551
60.3883
59.9893
59.4263
58.5439
57.0445
53.8557
43.0972
60.974
60.8968
60.7319
60.4643
60.0642
59.4997
58.6153
57.1128
53.9188
43.1449
61.0515
60.9742
60.8088
60.5405
60.1394
59.5735
58.6869
57.1812
53.9818
43.1929
61.1292
61.0516
60.8859
60.617
60.2149
59.6472
58.7587
57.25
54.0449
43.2411
61.2074
61.1296
60.9633
60.6937
60.2906
59.7215
58.8308
57.319
54.1084
43.2892
61.2908
61.2127
61.046
60.7754
60.3712
59.8007
58.9076
57.3925
54.1761
43.3403
61.3766
61.2983
61.131
60.8598
60.4544
59.8821
58.9868
57.4681
54.2457
43.3933
61.4574
61.3788
61.2112
60.9393
60.5327
59.9589
59.0615
57.5396
54.3114
43.4433
61.5335
61.4548
61.2865
61.014
60.6065
60.0313
59.1317
57.6069
54.3731
43.4902
61.6053
61.5263
61.3577
61.0843
60.6759
60.0995
59.1979
57.6702
54.4314
43.5343
61.6728
61.5937
61.4247
61.1508
60.7414
60.1636
59.2603
57.7298
54.4862
43.5758
61.7365
61.6572
61.4878
61.2134
60.8031
60.2241
59.3191
57.7859
54.5379
43.6148
61.7965
61.717
61.5473
61.2723
60.8613
60.281
59.3745
57.8389
54.5865
43.6516
61.8531
61.7734
61.6035
61.3279
60.9162
60.3348
59.4267
57.889
54.6323
43.6862
61.9065
61.8267
61.6563
61.3804
60.9679
60.3857
59.4761
57.9362
54.6757
43.7189
61.9569
61.877
61.7063
61.4299
61.0168
60.4336
59.5226
57.9807
54.7165
43.7498
62.0046
61.9245
61.7535
61.4766
61.0629
60.4788
59.5665
58.0227
54.7552
43.7789
62.0495
61.9693
61.7982
61.5207
61.1065
60.5216
59.608
58.0624
54.7917
43.8063
62.0919
62.0116
61.8401
61.5624
61.1475
60.5618
59.6472
58.0999
54.826
43.8321
62.132
62.0515
61.8799
61.6018
61.1863
60.5999
59.6841
58.1352
54.8584
43.8566
62.1698
62.0892
61.9174
61.6389
61.223
60.6358
59.7191
58.1685
54.8891
43.8797
62.2055
62.1248
61.9528
61.674
61.2575
60.6698
59.752
58.2001
54.9181
43.9014
62.2392
62.1585
61.9862
61.7071
61.2902
60.7018
59.7833
58.2299
54.9455
43.9221
62.271
62.1903
62.0178
61.7385
61.3212
60.7321
59.8127
58.2581
54.9713
43.9415
62.3011
62.2202
62.0476
61.768
61.3504
60.7607
59.8406
58.2848
54.9958
43.9599
62.3296
62.2486
62.0758
61.7961
61.378
60.7878
59.8669
58.3099
55.0189
43.9773
62.3565
62.2754
62.1026
61.8225
61.4041
60.8134
59.8918
58.3338
55.0408
43.9938
62.3819
62.3007
62.1277
61.8475
61.4287
60.8376
59.9153
58.3563
55.0615
44.0093
62.4058
62.3246
62.1515
61.871
61.452
60.8604
59.9375
58.3776
55.081
44.024
62.4284
62.3471
62.174
61.8933
61.474
60.882
59.9585
58.3978
55.0994
44.0378
62.4499
62.3685
62.1951
61.9143
61.4947
60.9024
59.9783
58.4167
55.1168
44.0509
62.47
62.3887
62.2153
61.9342
61.5144
60.9217
59.9971
58.4346
55.1334
44.0633
62.4891
62.4077
62.2342
61.953
61.5329
60.9399
60.0148
58.4516
55.1489
44.0748
62.5071
62.4257
62.252
61.9707
61.5505
60.9571
60.0316
58.4678
55.1638
44.0862
62.5241
62.4426
62.2689
61.9874
61.567
60.9732
60.0473
58.4828
55.1776
44.0962
62.5403
62.4589
62.285
62.0033
61.5827
60.9888
60.0624
58.4973
55.191
44.1068
62.5552
62.4737
62.2997
62.0181
61.5972
61.0029
60.0762
58.5105
55.2029
44.115
62.5704
62.4888
62.3149
62.0329
61.6119
61.0173
60.0903
58.524
55.2154
44.1251
62.5817
62.5002
62.3261
62.0441
61.6229
61.0281
60.1008
58.5341
55.2244
44.1306
62.6027
62.5211
62.3468
62.0647
61.6432
61.048
60.1199
58.5522
55.2408
44.1421
57.4294
58.0866
58.0675
56.8495
56.1335
56.0952
54.7281
54.7277
53.702
53.4747
52.7061
52.2203
51.7534
51.2461
50.7429
50.2773
49.921
49.6597
49.473
49.3098
49.1455
49.105
48.9844
48.9847
48.9286
48.929
48.9471
48.9781
48.9968
48.3502
56.7495
57.9312
57.8424
56.565
55.8115
55.7556
54.3579
54.3514
53.3096
53.0774
52.2986
51.8063
51.3324
50.8199
50.3139
49.8444
49.4839
49.2208
49.0324
48.8658
48.7022
48.6647
48.5464
48.5527
48.5048
48.5213
48.563
48.6263
48.7008
47.4501
55.8913
57.6729
57.5671
56.2481
55.4605
55.3876
53.9578
53.9419
52.8786
52.6386
51.8459
51.3452
50.8638
50.3435
49.8294
49.353
48.9889
48.7232
48.534
48.3693
48.2047
48.1707
48.0562
48.0715
48.033
48.0641
48.1247
48.2049
48.2935
46.3828
54.8086
57.2661
57.1762
55.8279
55.0171
54.9356
53.4752
53.4508
52.3656
52.1161
51.3082
50.7969
50.3069
49.7772
49.2554
48.7717
48.4023
48.1337
47.9434
47.7768
47.615
47.5849
47.4733
47.4957
47.462
47.5011
47.5702
47.656
47.7236
45.1029
53.6296
56.7952
56.7367
55.3624
54.5322
54.4433
52.957
52.926
51.8187
51.5604
50.7362
50.2138
49.7142
49.1756
48.64
48.1473
47.7732
47.5015
47.3101
47.1493
46.9839
46.9567
46.8459
46.8736
46.8412