/*--------------------------------*- C++ -*----------------------------------*\
| =========                 |                                                 |
| \\      /  F ield         | OpenFOAM: The Open Source CFD Toolbox           |
|  \\    /   O peration     | Version:  2.4.0                                 |
|   \\  /    A nd           | Web:      www.OpenFOAM.org                      |
|    \\/     M anipulation  |                                                 |
\*---------------------------------------------------------------------------*/
FoamFile
{
    version     2.0;
    format      ascii;
    class       volScalarField;
    location    "0";
    object      kappa;
}
// * * * * * * * * * * * * * * * * * * * * * * * * * * * * * * * * * * * * * //

dimensions      [1 1 -3 -1 0 0 0];

internalField   nonuniform List<scalar> 
38400
(
0.0809762
0.0842229
0.0848177
0.0851938
0.0856702
0.0861991
0.0867306
0.0872119
0.0875628
0.0877804
0.0878754
0.0878865
0.0878543
0.0878061
0.0877556
0.0877224
0.0877088
0.0877106
0.0877273
0.0877421
0.0877621
0.087789
0.0878165
0.0878522
0.087899
0.0879456
0.0879894
0.0880333
0.0880862
0.0881365
0.088189
0.0882595
0.0809864
0.0842484
0.0849411
0.0854415
0.0859968
0.0865613
0.0870697
0.0874929
0.0877962
0.0879848
0.0880752
0.0880969
0.0880758
0.0880312
0.0879791
0.0879446
0.0879282
0.0879193
0.0879236
0.0879315
0.0879461
0.087967
0.0879909
0.0880231
0.0880655
0.0881095
0.088152
0.0881938
0.0882433
0.0882911
0.0883404
0.0884082
0.0810016
0.08432
0.0852215
0.0858848
0.0865109
0.0870872
0.0875569
0.0879164
0.0881706
0.0883288
0.0884098
0.0884302
0.0884092
0.0883635
0.0883111
0.0882726
0.0882495
0.0882283
0.08822
0.0882211
0.0882296
0.0882436
0.0882622
0.0882888
0.0883245
0.088363
0.0884021
0.0884408
0.0884853
0.0885283
0.0885727
0.0886359
0.0810105
0.0844974
0.0856625
0.0864537
0.0871048
0.0876572
0.0880801
0.0883858
0.0885966
0.0887272
0.0887927
0.0888042
0.0887794
0.0887326
0.0886814
0.08864
0.0886107
0.0885832
0.0885605
0.0885592
0.0885619
0.0885692
0.0885817
0.0886015
0.0886299
0.0886616
0.0886951
0.0887288
0.0887679
0.0888056
0.0888434
0.0889004
0.0810078
0.0848354
0.0862287
0.0870773
0.0877101
0.0882147
0.0885876
0.0888472
0.0890219
0.0891273
0.0891779
0.0891821
0.0891545
0.0891089
0.0890592
0.089016
0.088983
0.0889518
0.0889257
0.0889141
0.0889116
0.0889136
0.0889196
0.0889324
0.0889529
0.0889773
0.0890039
0.0890313
0.0890637
0.0890963
0.0891273
0.0891777
0.0810066
0.0853406
0.0868628
0.0877073
0.0882936
0.0887402
0.0890642
0.089285
0.0894292
0.0895138
0.0895519
0.0895503
0.0895217
0.0894771
0.0894286
0.0893854
0.0893502
0.0893173
0.0892885
0.089269
0.0892606
0.089258
0.0892591
0.0892654
0.089278
0.0892947
0.0893141
0.0893345
0.0893595
0.0893858
0.0894093
0.0894541
0.0810487
0.085972
0.0875228
0.0883179
0.088843
0.0892315
0.0895102
0.0896972
0.089816
0.0898837
0.089911
0.0899049
0.0898751
0.0898309
0.0897842
0.0897408
0.0897045
0.0896705
0.0896401
0.089617
0.0896016
0.089593
0.0895898
0.0895908
0.0895971
0.0896065
0.0896186
0.0896316
0.0896491
0.0896682
0.089685
0.0897218
0.0811948
0.0866722
0.0881824
0.0888993
0.0893596
0.0896931
0.0899308
0.0900878
0.0901854
0.090238
0.0902565
0.0902457
0.0902142
0.0901709
0.0901245
0.0900811
0.0900439
0.090009
0.0899774
0.0899517
0.0899328
0.0899182
0.0899077
0.0899037
0.0899049
0.0899083
0.089914
0.08992
0.0899304
0.089942
0.0899519
0.08998
0.0814991
0.0874047
0.0888262
0.0894527
0.0898489
0.0901323
0.0903319
0.0904623
0.0905404
0.0905802
0.0905904
0.0905749
0.0905421
0.0904986
0.0904521
0.0904085
0.09037
0.090334
0.0903008
0.0902731
0.0902507
0.0902324
0.0902172
0.0902058
0.0902002
0.0901983
0.0901981
0.0901985
0.0902021
0.0902072
0.0902103
0.0902294
0.0819909
0.0881555
0.0894474
0.0899814
0.0903161
0.0905519
0.0907165
0.0908218
0.0908827
0.0909108
0.0909134
0.0908944
0.0908603
0.0908164
0.0907703
0.0907262
0.0906863
0.0906487
0.0906136
0.0905836
0.0905582
0.0905359
0.0905169
0.090501
0.0904889
0.0904796
0.0904729
0.0904674
0.090465
0.0904638
0.0904607
0.0904711
0.082659
0.0889079
0.0900381
0.0904809
0.0907555
0.0909474
0.0910796
0.0911621
0.0912082
0.0912262
0.0912231
0.0912017
0.0911669
0.0911239
0.0910786
0.0910345
0.0909944
0.0909555
0.090919
0.090886
0.0908578
0.0908321
0.0908089
0.0907888
0.090772
0.0907572
0.0907441
0.090732
0.0907224
0.0907149
0.0907057
0.0907075
0.0834507
0.089634
0.09058
0.0909363
0.0911556
0.091307
0.0914101
0.0914739
0.0915069
0.0915175
0.0915107
0.0914883
0.091455
0.0914147
0.0913718
0.0913295
0.0912901
0.0912515
0.0912144
0.0911804
0.0911495
0.0911214
0.0910946
0.0910705
0.0910495
0.0910301
0.091012
0.0909946
0.0909792
0.0909652
0.0909502
0.090943
0.0843326
0.0902963
0.0910552
0.0913339
0.0915042
0.0916207
0.0916995
0.0917466
0.0917697
0.0917752
0.0917663
0.091745
0.0917149
0.0916785
0.0916394
0.0916012
0.0915641
0.091528
0.0914919
0.0914586
0.0914272
0.0913977
0.0913694
0.0913426
0.0913182
0.0912956
0.0912733
0.0912519
0.0912316
0.0912127
0.0911926
0.0911784
0.085322
0.0908693
0.0914565
0.0916692
0.0917976
0.0918852
0.0919435
0.0919772
0.0919928
0.0919946
0.0919846
0.0919655
0.091939
0.0919072
0.0918736
0.0918398
0.0918067
0.091774
0.091741
0.0917097
0.0916796
0.0916505
0.0916224
0.0915952
0.0915691
0.0915442
0.09152
0.0914959
0.0914722
0.0914501
0.0914256
0.0914066
0.0864449
0.0913492
0.0917884
0.0919459
0.0920404
0.0921038
0.092145
0.0921682
0.0921777
0.0921762
0.0921664
0.0921492
0.0921262
0.092099
0.0920704
0.0920411
0.0920126
0.0919833
0.0919543
0.0919255
0.0918981
0.0918706
0.0918436
0.091817
0.0917912
0.0917655
0.0917401
0.0917149
0.0916891
0.0916653
0.0916377
0.0916164
0.087685
0.0917436
0.09206
0.0921722
0.0922388
0.0922823
0.0923102
0.0923246
0.0923289
0.0923253
0.0923152
0.0922999
0.0922798
0.092257
0.0922325
0.0922073
0.0921826
0.0921569
0.0921313
0.0921051
0.0920801
0.0920546
0.0920289
0.0920037
0.0919783
0.0919531
0.0919269
0.0919016
0.0918745
0.0918498
0.0918199
0.0917978
0.0889716
0.0920655
0.0922813
0.092357
0.0924006
0.0924279
0.0924445
0.0924521
0.0924521
0.0924464
0.0924367
0.0924228
0.0924053
0.0923859
0.0923648
0.0923431
0.0923213
0.0922987
0.0922758
0.0922525
0.0922291
0.0922056
0.092181
0.0921568
0.0921323
0.0921074
0.0920811
0.0920553
0.0920276
0.0920023
0.091971
0.0919481
0.0902199
0.0923278
0.0924613
0.0925073
0.0925322
0.0925465
0.092554
0.0925556
0.0925525
0.0925456
0.0925356
0.0925228
0.0925075
0.0924908
0.0924725
0.0924536
0.0924343
0.0924141
0.0923935
0.0923723
0.0923503
0.0923284
0.092305
0.0922814
0.0922574
0.092233
0.0922069
0.0921809
0.0921524
0.0921265
0.0920941
0.0920707
0.0913605
0.092541
0.092608
0.0926296
0.0926393
0.0926429
0.0926431
0.09264
0.092634
0.0926259
0.092616
0.0926041
0.0925906
0.092576
0.0925599
0.0925434
0.0925263
0.0925081
0.0924892
0.0924697
0.0924488
0.0924281
0.0924059
0.0923828
0.0923591
0.0923349
0.0923089
0.0922829
0.0922538
0.0922274
0.0921939
0.09217
0.0923513
0.0927145
0.0927274
0.0927292
0.0927264
0.0927215
0.0927157
0.0927086
0.0927003
0.0926914
0.0926814
0.0926702
0.0926582
0.0926453
0.0926312
0.0926167
0.0926008
0.0925846
0.0925669
0.092549
0.0925291
0.0925092
0.0924879
0.0924655
0.0924418
0.0924179
0.0923917
0.0923657
0.0923362
0.0923094
0.0922751
0.092251
0.0529782
0.0627476
0.0650533
0.0664989
0.0683062
0.070289
0.0722588
0.0740279
0.0753179
0.0761308
0.0765137
0.0766078
0.0765572
0.0764595
0.0763609
0.0763326
0.0763801
0.0764786
0.076628
0.0767914
0.0769848
0.0772146
0.0774592
0.0777381
0.0780559
0.0783857
0.0787105
0.0790523
0.0794002
0.0797745
0.0800813
0.0806285
0.0530094
0.0628431
0.0655127
0.0674172
0.0695067
0.071607
0.0734797
0.0750291
0.0761444
0.0768499
0.0772141
0.0773416
0.0773266
0.0772372
0.0771292
0.0770915
0.077123
0.0771852
0.0772841
0.077415
0.077583
0.0777828
0.0780039
0.0782608
0.0785538
0.0788619
0.0791684
0.0794898
0.0798175
0.0801702
0.0804606
0.0809769
0.0530557
0.0631113
0.0665549
0.0690513
0.0713833
0.0735055
0.0752202
0.0765295
0.0774589
0.0780525
0.0783771
0.078496
0.0784769
0.0783784
0.0782651
0.0782062
0.0782076
0.0782234
0.0782737
0.0783676
0.0785017
0.0786656
0.0788537
0.0790763
0.0793329
0.0796058
0.0798823
0.0801711
0.0804672
0.0807872
0.0810521
0.0815211
0.0530841
0.063775
0.06819
0.071136
0.0735312
0.0755416
0.0770701
0.078174
0.0789433
0.0794316
0.0796975
0.0797808
0.0797435
0.0796378
0.079522
0.0794461
0.0794185
0.0794042
0.0794166
0.0794786
0.0795778
0.0797052
0.0798574
0.0800412
0.0802567
0.0804901
0.0807305
0.0809813
0.0812409
0.0815226
0.0817581
0.082173
0.0530719
0.0650387
0.0702747
0.0733959
0.0756948
0.0775098
0.0788442
0.0797756
0.0804089
0.0808042
0.0810137
0.0810677
0.0810178
0.0809107
0.0807949
0.0807073
0.0806595
0.0806245
0.0806135
0.080645
0.0807126
0.0808061
0.0809231
0.0810686
0.0812439
0.0814369
0.0816395
0.0818516
0.0820739
0.0823152
0.0825205
0.082879
0.0530634
0.0669237
0.0725872
0.0756515
0.0777538
0.0793432
0.0804917
0.0812782
0.0818
0.0821189
0.0822815
0.0823124
0.0822547
0.0821475
0.0820321
0.0819385
0.0818768
0.0818289
0.0818006
0.0818072
0.0818485
0.0819132
0.0819981
0.0821085
0.0822463
0.082401
0.0825666
0.0827412
0.0829273
0.0831295
0.0833054
0.0836083
0.0532049
0.0692644
0.0749637
0.077809
0.079669
0.0810374
0.0820173
0.0826795
0.0831101
0.0833666
0.08349
0.083502
0.0834373
0.08333
0.0832154
0.0831173
0.083047
0.0829893
0.0829489
0.0829373
0.0829551
0.082995
0.0830534
0.083133
0.083237
0.0833567
0.0834878
0.083627
0.0837795
0.0839447
0.0840918
0.0843427
0.0537197
0.0718334
0.0773041
0.0798351
0.0814472
0.0826123
0.083442
0.0839971
0.0843501
0.084553
0.0846434
0.0846379
0.0845665
0.0844581
0.0843424
0.084241
0.0841633
0.0840976
0.0840473
0.0840221
0.0840214
0.0840396
0.0840741
0.0841279
0.0842031
0.0842918
0.084392
0.0844986
0.0846197
0.0847507
0.0848704
0.0850727
0.0548064
0.0744833
0.0795537
0.0817384
0.0831132
0.0840947
0.0847887
0.0852477
0.085533
0.0856898
0.0857503
0.0857285
0.0856507
0.0855398
0.0854223
0.0853168
0.0852322
0.0851588
0.0850991
0.0850615
0.0850451
0.0850456
0.0850598
0.0850902
0.0851399
0.0852017
0.0852745
0.0853523
0.0854447
0.0855446
0.0856394
0.0857964
0.056596
0.0771542
0.081695
0.083535
0.0846857
0.0854987
0.0860691
0.0864409
0.0866653
0.0867816
0.086816
0.0867803
0.0866966
0.0865839
0.086465
0.0863562
0.0862649
0.0861836
0.0861146
0.0860648
0.0860339
0.0860182
0.0860144
0.0860245
0.0860515
0.0860894
0.0861374
0.0861898
0.0862562
0.0863277
0.0863997
0.0865152
0.0590736
0.0797874
0.0837041
0.0852142
0.0861534
0.0868114
0.0872691
0.0875633
0.0877353
0.0878178
0.0878315
0.0877866
0.0877006
0.0875895
0.0874722
0.0873626
0.0872671
0.0871798
0.0871026
0.087042
0.0869975
0.0869666
0.0869461
0.0869382
0.0869451
0.0869615
0.0869871
0.0870163
0.0870592
0.0871051
0.0871552
0.0872333
0.062033
0.0822889
0.0855269
0.0867323
0.0874782
0.0879977
0.0883565
0.0885847
0.0887139
0.0887708
0.088771
0.0887231
0.088641
0.0885372
0.0884273
0.0883226
0.0882283
0.08814
0.0880591
0.0879912
0.0879368
0.0878934
0.0878589
0.0878352
0.0878246
0.0878221
0.087828
0.0878366
0.0878581
0.0878811
0.0879114
0.0879563
0.065289
0.0845398
0.0871092
0.0880465
0.0886246
0.089026
0.089302
0.0894755
0.0895715
0.0896103
0.0896041
0.0895589
0.0894863
0.0893956
0.0892989
0.0892053
0.0891192
0.0890364
0.0889588
0.0888904
0.0888326
0.0887827
0.0887397
0.0887054
0.0886817
0.0886643
0.0886543
0.0886462
0.0886498
0.0886535
0.0886667
0.0886827
0.0688348
0.0864631
0.0884332
0.0891457
0.0895841
0.0898876
0.0900957
0.0902253
0.0902958
0.0903216
0.090313
0.0902745
0.0902134
0.0901387
0.0900586
0.0899798
0.0899064
0.0898345
0.0897661
0.0897039
0.0896493
0.0895997
0.0895555
0.0895174
0.089487
0.0894611
0.0894413
0.0894226
0.0894133
0.0894031
0.0894021
0.0893977
0.0727232
0.0880526
0.0895186
0.0900472
0.0903716
0.0905955
0.0907486
0.0908427
0.0908929
0.0909098
0.0909001
0.0908682
0.0908194
0.0907594
0.0906954
0.0906324
0.0905721
0.0905136
0.0904563
0.0904038
0.0903559
0.0903119
0.0902712
0.0902343
0.090203
0.0901751
0.0901509
0.0901272
0.0901104
0.0900924
0.0900818
0.0900661
0.0768865
0.0893457
0.0904003
0.0907804
0.0910124
0.0911721
0.0912801
0.0913461
0.09138
0.0913892
0.0913797
0.0913537
0.0913146
0.0912683
0.0912182
0.0911682
0.091121
0.0910735
0.0910275
0.0909838
0.0909441
0.0909061
0.0908702
0.0908371
0.0908075
0.0907796
0.0907541
0.0907292
0.0907081
0.0906869
0.0906693
0.0906495
0.0810745
0.0903922
0.0911148
0.0913746
0.0915323
0.0916397
0.0917121
0.0917549
0.0917752
0.0917791
0.0917693
0.0917477
0.0917177
0.0916817
0.0916429
0.0916045
0.0915667
0.0915297
0.0914925
0.0914574
0.0914235
0.0913915
0.0913602
0.0913303
0.0913027
0.0912764
0.0912509
0.0912253
0.0912017
0.0911785
0.0911558
0.0911346
0.0850073
0.0912383
0.0916937
0.0918566
0.0919539
0.0920196
0.0920625
0.0920861
0.0920965
0.0920953
0.0920853
0.0920679
0.0920446
0.0920168
0.0919879
0.091958
0.0919291
0.0918994
0.0918699
0.0918409
0.0918129
0.0917849
0.0917576
0.0917309
0.0917046
0.0916788
0.0916532
0.091628
0.0916022
0.0915781
0.0915507
0.0915289
0.0884867
0.0919228
0.0921628
0.0922473
0.0922965
0.0923276
0.0923467
0.0923559
0.092357
0.0923518
0.0923419
0.0923278
0.0923095
0.0922894
0.0922676
0.0922451
0.0922227
0.0921992
0.0921758
0.0921518
0.0921281
0.0921041
0.0920794
0.092055
0.0920303
0.0920053
0.0919792
0.0919535
0.0919259
0.0919008
0.0918697
0.0918474
0.0914232
0.0924776
0.0925435
0.0925648
0.0925742
0.0925777
0.0925777
0.0925746
0.0925687
0.0925605
0.0925506
0.0925385
0.0925251
0.0925106
0.0924945
0.0924782
0.0924609
0.0924428
0.092424
0.0924044
0.0923838
0.0923628
0.0923405
0.0923177
0.092294
0.0922697
0.0922436
0.0922176
0.0921885
0.0921622
0.0921286
0.0921048
0.0448317
0.0452693
0.0474156
0.0491159
0.0512747
0.0538871
0.0568572
0.0597558
0.0620527
0.0636489
0.0645949
0.0651158
0.0654441
0.0657301
0.0660428
0.0664654
0.0669943
0.0675787
0.0682127
0.0688588
0.0695222
0.0702036
0.0708741
0.0715558
0.0722477
0.0729319
0.0735749
0.0742231
0.0748322
0.0754848
0.0759751
0.0768944
0.0448165
0.0453194
0.0477808
0.0499889
0.0526089
0.0556431
0.0586562
0.0613341
0.0633983
0.06483
0.0657295
0.0662702
0.0666136
0.0668733
0.0671362
0.0675121
0.0679906
0.0685096
0.0690615
0.0696493
0.0702665
0.0709003
0.0715327
0.0721802
0.0728375
0.0734911
0.0741084
0.0747301
0.0753137
0.0759401
0.0764098
0.0772918
0.0447953
0.0454668
0.0486808
0.0517318
0.0550147
0.0584212
0.0613863
0.0637769
0.0655667
0.0668072
0.0676114
0.0680944
0.068381
0.0685725
0.0687707
0.0690679
0.0694619
0.0698867
0.0703454
0.0708567
0.0714074
0.0719791
0.0725563
0.0731508
0.0737556
0.0743609
0.0749367
0.0755166
0.0760603
0.0766468
0.0770852
0.0779102
0.044787
0.0458582
0.0503096
0.054332
0.0581846
0.0616742
0.0644574
0.0665478
0.0680683
0.0691094
0.0697784
0.0701569
0.0703589
0.0704788
0.0706111
0.0708253
0.0711287
0.0714649
0.0718447
0.0722725
0.0727488
0.0732514
0.0737652
0.0742987
0.0748439
0.0753936
0.0759194
0.0764501
0.0769476
0.0774872
0.0778893
0.0786499
0.0448011
0.0467147
0.0527638
0.0576912
0.0617004
0.0650141
0.0675181
0.0693163
0.0705856
0.0714376
0.0719735
0.072256
0.0723838
0.0724407
0.0725101
0.0726476
0.0728659
0.0731218
0.0734223
0.0737766
0.0741776
0.0746089
0.0750565
0.0755261
0.0760093
0.076501
0.0769744
0.0774532
0.0779029
0.0783925
0.0787567
0.07945
0.0448147
0.0482994
0.0560889
0.061405
0.065255
0.0682388
0.0704267
0.071957
0.0730081
0.0736971
0.0741166
0.0743184
0.074384
0.0743868
0.0743994
0.0744693
0.0746117
0.0747942
0.0750211
0.0753053
0.0756338
0.0759944
0.0763751
0.0767799
0.0772015
0.077634
0.0780543
0.078481
0.0788832
0.0793235
0.0796499
0.0802754
0.0447549
0.0508393
0.0599794
0.0651827
0.0686758
0.0712783
0.0731563
0.0744474
0.0753132
0.0758654
0.0761866
0.0763198
0.0763324
0.0762887
0.0762514
0.0762625
0.0763379
0.0764536
0.0766121
0.0768264
0.0770885
0.0773811
0.0776959
0.0780365
0.078396
0.0787704
0.0791368
0.0795121
0.0798668
0.0802588
0.0805486
0.0811076
0.0445298
0.054344
0.0640954
0.0688472
0.0719084
0.0741347
0.0757257
0.0768051
0.0775119
0.0779475
0.0781849
0.0782587
0.0782262
0.0781421
0.078061
0.0780215
0.0780382
0.0780931
0.0781883
0.0783362
0.0785312
0.0787602
0.0790121
0.079289
0.0795876
0.0799031
0.0802155
0.0805393
0.0808471
0.0811908
0.0814444
0.0819384
0.0441175
0.0587137
0.068198
0.0723436
0.0749632
0.0768383
0.0781667
0.079056
0.0796235
0.0799583
0.0801222
0.0801446
0.0800734
0.0799549
0.0798371
0.0797529
0.0797188
0.0797187
0.0797554
0.0798407
0.0799712
0.0801357
0.0803253
0.0805423
0.0807811
0.0810382
0.0812959
0.0815672
0.0818278
0.0821224
0.08234
0.0827688
0.043651
0.0634983
0.0721672
0.0756676
0.0778584
0.0794076
0.080495
0.0812122
0.0816567
0.0819035
0.0820049
0.0819837
0.0818815
0.0817358
0.0815885
0.0814683
0.0813904
0.0813417
0.0813256
0.081353
0.0814222
0.0815244
0.0816522
0.0818075
0.0819874
0.0821868
0.0823912
0.0826089
0.0828214
0.0830653
0.0832465
0.0836081
0.0435351
0.0683962
0.0759191
0.0787865
0.0805697
0.0818182
0.0826871
0.0832514
0.0835902
0.0837642
0.0838159
0.0837635
0.0836408
0.083479
0.0833132
0.0831677
0.0830562
0.0829685
0.0829076
0.0828839
0.082898
0.0829418
0.0830102
0.0831053
0.0832259
0.0833668
0.0835165
0.0836799
0.0838444
0.084036
0.0841807
0.0844714
0.0446172
0.0731267
0.0793362
0.0816145
0.0830236
0.0840043
0.0846826
0.0851173
0.0853706
0.0854899
0.085508
0.0854402
0.0853123
0.0851493
0.0849802
0.084825
0.0846948
0.0845822
0.0844892
0.0844269
0.0843954
0.0843888
0.0844051
0.0844451
0.0845098
0.0845937
0.0846891
0.0847975
0.0849131
0.0850506
0.0851586
0.085375
0.0478383
0.0774083
0.0823022
0.0840635
0.0851489
0.0859028
0.0864224
0.0867521
0.0869396
0.0870214
0.0870219
0.0869534
0.0868351
0.0866865
0.0865298
0.0863821
0.0862515
0.0861313
0.086025
0.0859407
0.0858799
0.0858385
0.0858146
0.0858105
0.0858282
0.085862
0.0859089
0.0859659
0.086035
0.0861189
0.0861909
0.0863315
0.0529904
0.0810568
0.0847751
0.0861053
0.0869242
0.0874923
0.0878834
0.0881297
0.0882677
0.088324
0.0883177
0.0882575
0.0881574
0.088033
0.087901
0.087773
0.0876565
0.0875462
0.0874434
0.0873563
0.0872849
0.0872267
0.0871814
0.08715
0.0871355
0.0871332
0.0871425
0.0871585
0.0871887
0.0872263
0.0872662
0.0873377
0.0594933
0.0840479
0.0867896
0.0877717
0.0883756
0.0887943
0.0890821
0.0892626
0.0893622
0.0894008
0.0893922
0.0893431
0.0892636
0.0891653
0.0890604
0.0889576
0.0888624
0.0887701
0.088683
0.0886052
0.0885385
0.0884796
0.0884294
0.0883883
0.0883589
0.0883373
0.0883247
0.0883155
0.0883192
0.0883243
0.0883394
0.0883597
0.0665999
0.0864579
0.0884159
0.0891189
0.0895514
0.0898504
0.0900554
0.0901829
0.0902525
0.0902775
0.0902682
0.0902295
0.0901686
0.0900938
0.0900138
0.0899348
0.089861
0.0897886
0.089719
0.0896557
0.0895996
0.0895484
0.0895027
0.0894624
0.0894301
0.0894023
0.0893808
0.0893605
0.0893497
0.0893381
0.0893361
0.0893298
0.0736928
0.0883908
0.0897262
0.0902066
0.0905015
0.0907044
0.0908431
0.0909283
0.0909734
0.090988
0.0909782
0.0909483
0.0909029
0.0908473
0.0907884
0.0907296
0.0906738
0.0906193
0.0905656
0.0905166
0.0904715
0.0904295
0.0903908
0.0903554
0.0903248
0.0902974
0.0902732
0.0902495
0.0902316
0.0902131
0.0902005
0.0901843
0.0802283
0.0899423
0.0907829
0.0910851
0.0912696
0.0913953
0.0914803
0.0915317
0.0915569
0.0915628
0.0915533
0.0915302
0.0914972
0.0914577
0.0914151
0.0913729
0.0913323
0.0912916
0.0912519
0.0912141
0.0911784
0.091145
0.0911125
0.0910819
0.0910544
0.0910281
0.0910032
0.0909784
0.0909563
0.0909346
0.090914
0.0908944
0.0858919
0.091191
0.0916365
0.0917958
0.0918909
0.091955
0.0919969
0.09202
0.0920298
0.0920286
0.0920186
0.0920014
0.0919783
0.0919512
0.0919226
0.0918934
0.0918647
0.0918356
0.0918064
0.0917781
0.0917503
0.0917227
0.0916961
0.0916696
0.0916436
0.0916183
0.0915931
0.0915683
0.0915428
0.0915189
0.0914917
0.0914707
0.0905869
0.0921984
0.0923269
0.0923708
0.0923948
0.0924083
0.0924152
0.0924165
0.0924132
0.092406
0.0923961
0.0923836
0.0923681
0.0923516
0.0923338
0.0923149
0.092296
0.0922759
0.0922555
0.0922343
0.0922127
0.0921909
0.0921675
0.0921444
0.0921204
0.0920959
0.0920699
0.092044
0.0920154
0.09199
0.0919572
0.0919344
0.059882
0.0442542
0.043338
0.0436887
0.0446659
0.0463257
0.0485917
0.0511915
0.05356
0.0555172
0.0568962
0.0578587
0.0586151
0.0593119
0.0600211
0.060822
0.0617099
0.0626368
0.0635927
0.0645434
0.0654895
0.0664316
0.0673412
0.0682423
0.069134
0.0700032
0.0708111
0.0716138
0.0723565
0.0731455
0.0737317
0.07483
0.0598387
0.0442179
0.0433572
0.043976
0.0453641
0.0474654
0.049993
0.0525852
0.0549162
0.0567704
0.0581196
0.0590989
0.0598631
0.0605277
0.0611821
0.0619315
0.0627653
0.0636247
0.0644983
0.0653874
0.0662846
0.0671768
0.0680459
0.0689106
0.0697657
0.0706024
0.0713828
0.0721582
0.0728736
0.0736356
0.0741997
0.0752589
0.0597827
0.0441177
0.043475
0.0447038
0.0467924
0.0494919
0.0522954
0.0549158
0.0571489
0.0588724
0.0601438
0.0610651
0.0617648
0.0623498
0.0629272
0.063588
0.0643303
0.0650898
0.0658654
0.066673
0.067499
0.0683249
0.0691352
0.0699444
0.0707443
0.0715307
0.0722678
0.0729996
0.0736733
0.0743941
0.0749247
0.0759256
0.0597739
0.0438991
0.0438853
0.0460883
0.0489817
0.0521765
0.0551847
0.0577661
0.0598252
0.061381
0.0625196
0.0633249
0.0639216
0.0644145
0.0649055
0.0654678
0.0661074
0.0667682
0.0674536
0.0681727
0.0689193
0.0696724
0.070416
0.0711611
0.0718991
0.0726278
0.0733131
0.0739941
0.0746197
0.0752925
0.075785
0.076719
0.0598417
0.0435919
0.0448645
0.0482444
0.051807
0.0553145
0.0583726
0.0607846
0.0626308
0.0639946
0.0649802
0.0656623
0.0661552
0.0665561
0.0669586
0.0674234
0.0679616
0.0685281
0.0691244
0.0697605
0.070426
0.0711033
0.071777
0.0724557
0.0731292
0.0737979
0.0744286
0.0750569
0.075633
0.0762554
0.0767082
0.0775734
0.0599027
0.0434116
0.0466486
0.0511136
0.0551014
0.0587156
0.0616208
0.0638118
0.0654313
0.0666015
0.067434
0.0679963
0.0683892
0.068701
0.0690159
0.0693871
0.0698286
0.0703045
0.0708141
0.0713689
0.0719551
0.072557
0.07316
0.0737713
0.0743808
0.0749893
0.075565
0.0761405
0.0766676
0.07724
0.0776536
0.0784503
0.0597101
0.0437347
0.0493262
0.0545404
0.058737
0.0621918
0.0648533
0.0667954
0.0681895
0.0691735
0.0698586
0.0703052
0.0706007
0.0708252
0.071054
0.0713354
0.071685
0.0720729
0.0724973
0.0729697
0.0734786
0.0740064
0.0745389
0.0750827
0.0756285
0.0761767
0.0766971
0.0772205
0.0776993
0.0782228
0.0785981
0.0793286
0.0589287
0.0449573
0.0528073
0.0584637
0.0625207
0.0656898
0.0680549
0.0697373
0.0709119
0.0717189
0.0722624
0.0725956
0.0727955
0.0729335
0.0730773
0.0732716
0.0735316
0.0738328
0.074173
0.0745625
0.0749917
0.0754454
0.0759081
0.0763844
0.0768654
0.0773534
0.0778184
0.078289
0.07872
0.0791949
0.0795329
0.080199
0.0573142
0.0473649
0.0571054
0.0626546
0.0663923
0.0691958
0.0712377
0.0726573
0.0736207
0.0742588
0.074666
0.0748886
0.0749943
0.0750461
0.0751059
0.0752138
0.0753858
0.0756003
0.0758551
0.0761605
0.0765085
0.0768845
0.0772748
0.0776825
0.078099
0.0785246
0.0789337
0.07935
0.0797328
0.0801586
0.0804594
0.0810605
0.0547633
0.0511253
0.0619384
0.0670113
0.0703016
0.0726933
0.0744007
0.0755618
0.0763243
0.0768043
0.0770839
0.0772017
0.0772174
0.0771865
0.0771643
0.0771878
0.0772722
0.0773993
0.0775677
0.0777867
0.0780505
0.0783458
0.0786597
0.0789952
0.0793436
0.0797058
0.080056
0.0804165
0.0807493
0.081124
0.0813873
0.0819208
0.0512967
0.0562827
0.0670229
0.0713887
0.074152
0.0761147
0.0774937
0.0784118
0.078992
0.0793326
0.0795005
0.079528
0.0794662
0.0793627
0.0792668
0.0792114
0.0792122
0.0792537
0.079335
0.0794667
0.0796438
0.0798545
0.0800883
0.0803469
0.0806237
0.0809171
0.0812048
0.081506
0.0817865
0.0821065
0.0823313
0.0827924
0.0473129
0.0624904
0.072006
0.0755619
0.0777786
0.0793304
0.0804092
0.0811132
0.081541
0.0817701
0.0818534
0.0818162
0.0817008
0.0815458
0.0813945
0.0812756
0.0812042
0.0811682
0.0811683
0.0812152
0.0813063
0.0814317
0.0815827
0.081761
0.0819615
0.0821816
0.0824035
0.0826398
0.082864
0.0831245
0.083309
0.0836916
0.044082
0.0688054
0.0765251
0.0792954
0.0810085
0.0821991
0.083022
0.0835509
0.0838617
0.0840124
0.084043
0.0839734
0.0838356
0.0836606
0.0834829
0.0833274
0.0832075
0.0831134
0.0830483
0.0830226
0.0830361
0.0830813
0.0831523
0.0832507
0.0833742
0.0835189
0.0836708
0.083838
0.0840028
0.0841984
0.0843404
0.0846362
0.0440965
0.0744797
0.0803681
0.0824582
0.0837461
0.0846393
0.0852553
0.0856474
0.0858716
0.0859721
0.0859773
0.0859023
0.0857708
0.0856054
0.085433
0.0852731
0.0851366
0.0850156
0.0849137
0.0848403
0.0847973
0.0847792
0.0847829
0.0848109
0.0848633
0.0849354
0.0850194
0.0851167
0.0852213
0.0853483
0.0854464
0.0856485
0.0494054
0.0791998
0.0835134
0.0850493
0.0859944
0.0866501
0.0871019
0.0873876
0.0875486
0.0876164
0.0876123
0.0875462
0.087436
0.0872984
0.0871527
0.0870129
0.0868876
0.0867699
0.0866631
0.0865746
0.0865062
0.0864537
0.0864172
0.0863978
0.0863983
0.0864132
0.0864409
0.0864777
0.0865278
0.08659
0.0866463
0.086755
0.0581564
0.0829921
0.0860461
0.0871409
0.0878145
0.0882818
0.0886033
0.0888058
0.0889183
0.0889635
0.0889561
0.088904
0.0888193
0.0887133
0.0886006
0.0884914
0.0883902
0.0882939
0.0882027
0.0881231
0.0880556
0.0879984
0.0879501
0.0879127
0.0878889
0.0878742
0.0878688
0.0878677
0.0878802
0.0878957
0.0879187
0.0879555
0.0676423
0.0860082
0.0880766
0.0888222
0.0892807
0.0895981
0.0898161
0.089952
0.0900268
0.0900549
0.0900465
0.0900074
0.0899451
0.0898679
0.0897862
0.0897058
0.0896307
0.0895582
0.0894882
0.0894259
0.0893709
0.089322
0.0892785
0.0892412
0.0892124
0.089189
0.0891718
0.0891559
0.0891498
0.0891437
0.0891456
0.0891476
0.0763593
0.0884099
0.0897056
0.0901738
0.0904614
0.0906592
0.0907946
0.0908776
0.0909218
0.0909364
0.0909272
0.0908985
0.0908552
0.0908016
0.090745
0.0906892
0.090636
0.0905843
0.0905336
0.0904877
0.0904459
0.0904071
0.0903716
0.0903395
0.090312
0.090288
0.0902667
0.0902464
0.0902308
0.0902159
0.0902041
0.0901941
0.0838087
0.0903295
0.0910158
0.0912633
0.0914138
0.0915159
0.0915846
0.0916255
0.0916449
0.0916485
0.0916392
0.0916185
0.0915899
0.0915559
0.0915191
0.0914828
0.0914475
0.0914126
0.0913778
0.091345
0.0913134
0.0912841
0.091255
0.0912276
0.0912025
0.0911784
0.091155
0.091132
0.0911101
0.0910897
0.0910676
0.091051
0.0899041
0.0918703
0.0920722
0.0921427
0.0921835
0.092209
0.0922241
0.0922305
0.0922303
0.0922248
0.0922147
0.0922012
0.0921843
0.0921652
0.0921453
0.0921242
0.0921033
0.0920813
0.0920594
0.0920363
0.0920141
0.0919911
0.0919676
0.0919442
0.0919202
0.0918959
0.0918703
0.0918455
0.0918182
0.0917937
0.0917624
0.0917412
0.0760304
0.0506312
0.0454361
0.0437614
0.0432333
0.0436537
0.0449733
0.0469566
0.0490821
0.0509585
0.0523977
0.0534954
0.0544432
0.0553312
0.0562295
0.0572135
0.0582788
0.0593792
0.0605031
0.0616173
0.0627193
0.0638084
0.0648557
0.0658866
0.066899
0.0678819
0.0687931
0.0696936
0.070524
0.0714008
0.0720537
0.0732677
0.0759856
0.0505143
0.0451263
0.0435043
0.0433221
0.0442229
0.0459422
0.0481089
0.050268
0.0521145
0.0535611
0.0547323
0.0556977
0.0565634
0.0574157
0.0583539
0.0593694
0.0604061
0.0614515
0.0625051
0.0635573
0.0645963
0.065602
0.0665953
0.0675698
0.0685189
0.0694017
0.0702735
0.0710751
0.0719241
0.0725537
0.0737274
0.0759343
0.0501828
0.0445097
0.043291
0.0438343
0.0454768
0.0477074
0.0500809
0.0522578
0.0540823
0.0555588
0.056702
0.0576228
0.0584232
0.0592067
0.0600634
0.0609929
0.0619333
0.0628829
0.0638549
0.0648359
0.0658075
0.0667532
0.067689
0.0686071
0.0695038
0.0703417
0.0711681
0.0719265
0.0727322
0.0733269
0.0744397
0.0759386
0.0494076
0.0437855
0.0435176
0.0450346
0.0474311
0.050086
0.0525662
0.0547531
0.056543
0.0579339
0.05899
0.0598254
0.0605434
0.0612466
0.0620097
0.0628403
0.0636841
0.0645426
0.0654275
0.0663285
0.0672258
0.0681035
0.0689738
0.0698276
0.0706649
0.0714488
0.0722232
0.0729317
0.0736875
0.0742419
0.0752855
0.0760187
0.04805
0.0433499
0.0444758
0.0469602
0.0499395
0.0528089
0.0553793
0.057495
0.0591521
0.0604234
0.0613748
0.0621163
0.0627479
0.0633657
0.064034
0.0647657
0.0655162
0.0662861
0.0670868
0.0679066
0.0687276
0.0695343
0.0703367
0.0711247
0.0719002
0.0726278
0.0733476
0.0740044
0.0747085
0.0752215
0.0761939
0.0760721
0.0462797
0.0436095
0.0462397
0.049489
0.0527878
0.0558311
0.0583261
0.0602869
0.0617876
0.0629252
0.0637658
0.0644114
0.0649556
0.0654866
0.0660621
0.0666981
0.067359
0.0680424
0.0687607
0.0695011
0.0702468
0.0709823
0.0717166
0.0724391
0.0731529
0.0738241
0.0744895
0.075096
0.0757486
0.0762209
0.0771229
0.0757956
0.0445729
0.0447954
0.0487262
0.0524508
0.0559696
0.0589649
0.0613021
0.06308
0.0644132
0.0654104
0.0661363
0.0666834
0.0671379
0.0675814
0.0680666
0.0686107
0.0691835
0.0697822
0.0704187
0.0710812
0.0717526
0.0724178
0.0730842
0.0737419
0.0743948
0.07501
0.0756222
0.0761789
0.0767819
0.0772146
0.0780487
0.0748077
0.0435322
0.0469513
0.0518046
0.0558168
0.0593425
0.0621697
0.0643019
0.0658791
0.067037
0.0678883
0.0684937
0.0689377
0.0692992
0.0696532
0.0700481
0.0705012
0.0709868
0.0715012
0.0720549
0.0726385
0.0732359
0.0738309
0.0744301
0.0750239
0.0756165
0.0761755
0.0767345
0.0772424
0.0777967
0.0781909
0.0789594
0.072839
0.0436151
0.0500317
0.0554255
0.0595279
0.0628772
0.0654605
0.0673517
0.0687131
0.0696878
0.0703862
0.0708641
0.0711988
0.0714617
0.0717221
0.0720244
0.0723854
0.0727818
0.0732098
0.0736797
0.074182
0.0747028
0.075226
0.0757573
0.0762868
0.0768179
0.0773213
0.0778269
0.0782861
0.0787917
0.0791483
0.0798515
0.0697452
0.0450854
0.0539564
0.0595987
0.0635257
0.0665808
0.0688579
0.0704786
0.071611
0.0723955
0.0729345
0.0732785
0.073497
0.0736558
0.0738174
0.0740227
0.0742875
0.074591
0.0749291
0.075311
0.075729
0.0761695
0.0766176
0.0770777
0.0775405
0.0780094
0.0784547
0.0789061
0.0793162
0.0797716
0.0800908
0.080728
0.0652802
0.0481599
0.0588273
0.0641999
0.0677685
0.0704257
0.0723486
0.0736795
0.0745778
0.0751706
0.0755492
0.0757572
0.0758576
0.0759085
0.0759677
0.0760715
0.0762354
0.0764406
0.0766831
0.0769721
0.077301
0.0776562
0.0780243
0.078409
0.0788016
0.0792037
0.0795893
0.0799828
0.0803424
0.0807456
0.0810266
0.0815953
0.0591127
0.0529909
0.0643142
0.0690664
0.0721124
0.0743009
0.0758489
0.0768922
0.0775666
0.0779812
0.0782117
0.0782945
0.0782847
0.0782334
0.0781922
0.0781946
0.0782555
0.0783578
0.0784997
0.0786901
0.0789234
0.0791871
0.0794697
0.0797731
0.0800901
0.080421
0.0807419
0.0810737
0.0813796
0.0817267
0.0819684
0.082464
0.0515445