/*--------------------------------*- C++ -*----------------------------------*\
| =========                 |                                                 |
| \\      /  F ield         | OpenFOAM: The Open Source CFD Toolbox           |
|  \\    /   O peration     | Version:  2.4.0                                 |
|   \\  /    A nd           | Web:      www.OpenFOAM.org                      |
|    \\/     M anipulation  |                                                 |
\*---------------------------------------------------------------------------*/
FoamFile
{
    version     2.0;
    format      ascii;
    class       volScalarField;
    location    "15000/solid";
    object      T;
}
// * * * * * * * * * * * * * * * * * * * * * * * * * * * * * * * * * * * * * //

dimensions      [0 0 0 1 0 0 0];

internalField   nonuniform List<scalar> 
403200
(
238.437
238.483
238.582
238.743
238.972
239.273
239.651
240.105
240.636
241.24
241.914
242.65
243.442
244.281
245.158
246.063
246.986
247.92
248.855
249.787
250.709
251.618
252.515
253.401
254.28
255.158
256.039
256.931
257.839
258.767
259.717
260.693
261.695
262.724
263.781
264.77
265.667
266.53
267.361
268.161
268.931
269.672
270.386
271.074
271.738
272.379
272.999
273.599
274.18
274.745
275.294
275.83
276.354
276.869
277.376
277.876
278.372
278.864
279.355
279.845
280.336
280.826
281.318
281.812
282.306
282.803
283.301
283.8
284.301
284.803
285.307
285.811
286.316
286.822
287.329
287.836
288.343
288.85
289.358
289.865
290.372
290.879
291.386
291.892
292.397
292.902
293.407
293.91
294.413
294.915
295.416
295.917
296.416
296.915
297.413
297.91
298.405
298.9
299.394
299.887
300.38
300.871
301.361
301.85
302.339
302.826
303.313
303.799
304.284
304.768
305.252
305.734
306.216
306.697
307.177
307.657
308.136
308.614
309.091
309.568
310.044
310.52
310.995
311.469
311.943
312.416
312.889
313.361
313.832
314.304
314.775
315.245
315.715
316.185
316.654
317.123
317.592
318.061
318.529
318.998
319.466
319.934
320.402
320.87
321.338
321.806
322.274
322.742
323.211
323.68
324.148
324.618
325.087
325.557
326.027
326.498
326.969
327.441
327.914
328.387
328.861
329.335
329.811
330.287
330.764
331.242
331.721
332.2
332.681
333.163
333.646
334.131
334.616
335.102
335.59
336.079
336.569
337.06
337.553
338.046
338.541
339.036
339.533
340.031
340.529
341.029
341.529
342.03
342.532
343.034
343.536
344.039
344.542
345.046
345.549
346.052
346.554
347.056
347.558
348.059
348.559
349.057
349.555
350.051
350.546
351.039
351.53
352.019
352.506
352.991
353.473
353.953
354.431
354.905
355.377
355.846
356.312
356.774
357.234
357.69
358.144
358.593
359.04
359.483
359.923
360.359
360.792
361.222
361.648
362.071
362.49
362.906
363.319
363.728
364.134
364.537
364.937
365.334
365.728
366.118
366.506
366.891
367.273
367.653
368.03
368.404
368.776
369.145
369.512
369.876
370.238
370.599
370.957
371.313
371.667
372.019
372.369
372.718
373.065
373.41
373.754
374.097
374.438
374.777
375.116
375.453
375.789
376.124
376.458
376.79
377.123
377.454
377.784
378.114
378.443
378.771
379.098
379.425
379.752
380.078
380.404
380.729
381.054
381.378
381.702
382.026
382.35
382.673
382.996
383.319
383.641
383.963
384.285
384.607
384.928
385.249
385.569
385.889
386.208
386.526
386.844
387.161
387.477
387.792
388.105
388.417
388.727
389.035
389.341
389.645
389.945
390.243
390.537
390.826
391.112
391.409
391.706
391.976
392.222
392.445
392.647
392.83
392.994
393.142
393.275
393.394
393.501
393.596
393.68
393.755
393.821
393.879
393.931
393.975
394.014
394.048
394.077
394.102
394.124
394.142
394.157
394.169
394.179
394.187
394.194
394.199
394.202
394.204
394.206
394.207
238.383
238.428
238.527
238.688
238.916
239.217
239.594
240.047
240.577
241.181
241.853
242.589
243.381
244.219
245.095
246
246.923
247.856
248.792
249.723
250.645
251.554
252.451
253.337
254.216
255.094
255.975
256.867
257.774
258.702
259.652
260.627
261.629
262.658
263.714
264.703
265.599
266.462
267.292
268.092
268.862
269.603
270.316
271.005
271.668
272.309
272.928
273.528
274.109
274.673
275.222
275.758
276.282
276.797
277.303
277.803
278.299
278.791
279.282
279.772
280.262
280.753
281.245
281.738
282.232
282.729
283.227
283.726
284.227
284.729
285.232
285.736
286.242
286.748
287.254
287.761
288.268
288.775
289.283
289.79
290.297
290.804
291.31
291.816
292.322
292.827
293.331
293.835
294.338
294.84
295.341
295.841
296.341
296.839
297.337
297.834
298.33
298.825
299.318
299.811
300.304
300.795
301.285
301.774
302.263
302.75
303.237
303.723
304.208
304.692
305.175
305.658
306.14
306.621
307.101
307.581
308.059
308.538
309.015
309.492
309.968
310.443
310.918
311.392
311.866
312.339
312.812
313.284
313.756
314.227
314.698
315.169
315.639
316.108
316.578
317.047
317.516
317.984
318.453
318.921
319.389
319.857
320.325
320.793
321.261
321.729
322.198
322.666
323.134
323.603
324.072
324.541
325.011
325.481
325.951
326.422
326.893
327.365
327.837
328.31
328.784
329.259
329.734
330.21
330.687
331.165
331.644
332.124
332.605
333.087
333.57
334.054
334.539
335.026
335.514
336.002
336.492
336.984
337.476
337.969
338.464
338.96
339.456
339.954
340.453
340.952
341.453
341.954
342.455
342.957
343.46
343.963
344.466
344.969
345.472
345.975
346.478
346.98
347.481
347.982
348.482
348.981
349.478
349.975
350.469
350.962
351.453
351.942
352.43
352.914
353.397
353.877
354.354
354.829
355.3
355.769
356.235
356.698
357.158
357.614
358.067
358.517
358.963
359.407
359.846
360.283
360.716
361.145
361.571
361.994
362.413
362.829
363.242
363.652
364.058
364.461
364.861
365.257
365.651
366.042
366.43
366.815
367.197
367.576
367.953
368.327
368.699
369.068
369.435
369.799
370.162
370.522
370.88
371.236
371.59
371.942
372.293
372.641
372.988
373.334
373.678
374.02
374.361
374.7
375.039
375.376
375.712
376.047
376.381
376.714
377.046
377.377
377.707
378.037
378.366
378.694
379.022
379.349
379.675
380.001
380.327
380.652
380.977
381.301
381.626
381.949
382.273
382.596
382.919
383.242
383.564
383.887
384.208
384.53
384.851
385.172
385.492
385.812
386.131
386.45
386.767
387.084
387.4
387.715
388.028
388.34
388.65
388.958
389.264
389.568
389.869
390.166
390.46
390.75
391.035
391.332
391.629
391.9
392.146
392.369
392.571
392.753
392.918
393.066
393.199
393.318
393.424
393.519
393.604
393.679
393.745
393.803
393.854
393.899
393.938
393.972
394.001
394.026
394.048
394.066
394.081
394.093
394.103
394.111
394.118
394.122
394.126
394.128
394.13
394.131
238.285
238.331
238.429
238.589
238.816
239.116
239.491
239.943
240.472
241.073
241.744
242.478
243.268
244.106
244.981
245.884
246.807
247.74
248.675
249.606
250.527
251.437
252.334
253.22
254.098
254.975
255.857
256.748
257.655
258.582
259.531
260.506
261.506
262.535
263.59
264.578
265.474
266.336
267.166
267.964
268.733
269.474
270.187
270.875
271.538
272.178
272.797
273.396
273.977
274.541
275.089
275.625
276.149
276.663
277.169
277.668
278.164
278.656
279.146
279.636
280.126
280.616
281.108
281.601
282.095
282.591
283.089
283.588
284.088
284.59
285.094
285.598
286.103
286.608
287.115
287.622
288.129
288.636
289.143
289.65
290.157
290.664
291.17
291.676
292.181
292.686
293.19
293.694
294.197
294.699
295.2
295.7
296.2
296.698
297.196
297.692
298.188
298.683
299.177
299.67
300.162
300.653
301.143
301.632
302.121
302.608
303.095
303.581
304.066
304.55
305.033
305.516
305.998
306.479
306.959
307.438
307.917
308.395
308.873
309.349
309.825
310.301
310.776
311.25
311.724
312.197
312.67
313.142
313.613
314.085
314.555
315.026
315.496
315.966
316.435
316.904
317.373
317.842
318.31
318.778
319.247
319.715
320.183
320.651
321.119
321.587
322.055
322.523
322.992
323.46
323.929
324.398
324.868
325.338
325.808
326.279
326.75
327.222
327.694
328.168
328.641
329.116
329.591
330.067
330.544
331.022
331.501
331.981
332.462
332.944
333.427
333.911
334.397
334.883
335.371
335.86
336.35
336.841
337.333
337.827
338.321
338.817
339.314
339.811
340.31
340.809
341.31
341.811
342.312
342.815
343.317
343.82
344.323
344.826
345.329
345.832
346.335
346.837
347.339
347.839
348.339
348.838
349.336
349.832
350.326
350.819
351.311
351.8
352.287
352.772
353.254
353.734
354.211
354.686
355.158
355.627
356.093
356.555
357.015
357.471
357.924
358.374
358.821
359.264
359.704
360.14
360.573
361.002
361.428
361.851
362.271
362.687
363.099
363.509
363.915
364.318
364.718
365.114
365.508
365.899
366.287
366.672
367.054
367.433
367.81
368.184
368.556
368.925
369.292
369.656
370.019
370.379
370.737
371.093
371.447
371.799
372.149
372.498
372.845
373.19
373.534
373.877
374.218
374.557
374.895
375.233
375.569
375.903
376.237
376.57
376.902
377.233
377.564
377.893
378.222
378.55
378.878
379.205
379.532
379.858
380.183
380.509
380.833
381.158
381.482
381.806
382.129
382.453
382.776
383.098
383.421
383.743
384.065
384.386
384.708
385.028
385.349
385.668
385.988
386.306
386.624
386.941
387.257
387.571
387.885
388.197
388.507
388.815
389.121
389.425
389.726
390.023
390.317
390.607
390.892
391.189
391.486
391.757
392.003
392.226
392.428
392.611
392.775
392.923
393.056
393.176
393.282
393.377
393.461
393.536
393.603
393.661
393.712
393.757
393.796
393.83
393.859
393.884
393.906
393.924
393.939
393.951
393.961
393.969
393.976
393.981
393.984
393.986
393.988
393.989
238.156
238.201
238.299
238.457
238.683
238.981
239.354
239.803
240.329
240.928
241.596
242.328
243.116
243.951
244.825
245.727
246.648
247.58
248.514
249.445
250.366
251.275
252.172
253.058
253.936
254.813
255.693
256.584
257.49
258.416
259.364
260.338
261.337
262.364
263.418
264.405
265.3
266.161
266.99
267.788
268.556
269.295
270.008
270.695
271.357
271.996
272.615
273.213
273.793
274.356
274.904
275.439
275.963
276.476
276.981
277.481
277.975
278.467
278.957
279.446
279.936
280.426
280.917
281.41
281.904
282.399
282.897
283.396
283.896
284.398
284.901
285.404
285.909
286.415
286.921
287.427
287.934
288.441
288.948
289.455
289.962
290.469
290.975
291.48
291.986
292.49
292.994
293.498
294
294.502
295.003
295.503
296.003
296.501
296.999
297.495
297.991
298.486
298.979
299.472
299.964
300.455
300.945
301.435
301.923
302.41
302.897
303.383
303.868
304.352
304.835
305.317
305.799
306.28
306.76
307.24
307.718
308.197
308.674
309.151
309.627
310.102
310.577
311.051
311.525
311.998
312.471
312.943
313.414
313.886
314.357
314.827
315.297
315.767
316.236
316.705
317.174
317.643
318.111
318.579
319.047
319.516
319.984
320.452
320.92
321.388
321.856
322.324
322.792
323.261
323.73
324.199
324.669
325.139
325.609
326.08
326.551
327.023
327.495
327.968
328.442
328.917
329.392
329.868
330.345
330.823
331.302
331.782
332.263
332.745
333.228
333.712
334.197
334.684
335.171
335.66
336.15
336.641
337.134
337.627
338.122
338.618
339.114
339.612
340.111
340.61
341.11
341.611
342.113
342.615
343.118
343.621
344.124
344.627
345.13
345.633
346.136
346.638
347.14
347.64
348.14
348.639
349.137
349.633
350.127
350.62
351.112
351.601
352.088
352.573
353.055
353.535
354.012
354.487
354.959
355.428
355.893
356.356
356.816
357.272
357.725
358.175
358.622
359.065
359.504
359.941
360.374
360.803
361.229
361.652
362.071
362.487
362.9
363.309
363.715
364.118
364.518
364.915
365.309
365.699
366.087
366.472
366.854
367.234
367.61
367.984
368.356
368.725
369.092
369.457
369.819
370.179
370.537
370.893
371.247
371.599
371.949
372.298
372.645
372.99
373.334
373.677
374.017
374.357
374.695
375.032
375.368
375.703
376.037
376.37
376.702
377.033
377.364
377.693
378.022
378.35
378.678
379.005
379.331
379.657
379.983
380.308
380.633
380.958
381.282
381.606
381.929
382.252
382.575
382.898
383.221
383.543
383.865
384.186
384.507
384.828
385.148
385.468
385.787
386.106
386.424
386.741
387.056
387.371
387.685
387.997
388.307
388.615
388.921
389.225
389.526
389.823
390.117
390.407
390.692
390.99
391.287
391.558
391.804
392.027
392.229
392.412
392.576
392.725
392.858
392.977
393.083
393.178
393.263
393.338
393.404
393.463
393.514
393.559
393.598
393.632
393.661
393.686
393.708
393.726
393.741
393.753
393.763
393.771
393.778
393.782
393.786
393.788
393.79
393.79
238.003
238.047
238.144
238.301
238.525
238.82
239.19
239.636
240.158
240.753
241.418
242.147
242.931
243.764
244.635
245.535
246.455
247.385
248.319
249.249
250.169
251.078
251.974
252.859
253.737
254.613
255.493
256.383
257.288
258.213
259.16
260.132
261.13
262.155
263.208
264.193
265.086
265.946
266.773
267.57
268.337
269.076
269.787
270.473
271.134
271.773
272.39
272.987
273.567
274.129
274.677
275.211
275.733
276.246
276.751
277.249
277.743
278.234
278.724
279.213
279.701
280.191
280.682
281.174
281.668
282.163
282.66
283.158
283.658
284.16
284.662
285.166
285.67
286.175
286.681
287.188
287.694
288.201
288.708
289.214
289.721
290.227
290.733
291.239
291.744
292.248
292.752
293.255
293.758
294.259
294.76
295.26
295.759
296.258
296.755
297.252
297.747
298.242
298.735
299.228
299.72
300.211
300.701
301.19
301.678
302.166
302.652
303.138
303.623
304.107
304.59
305.072
305.554
306.035
306.515
306.994
307.473
307.951
308.428
308.905
309.381
309.856
310.331
310.805
311.279
311.752
312.225
312.697
313.168
313.64
314.11
314.581
315.051
315.521
315.99
316.459
316.928
317.396
317.865
318.333
318.801
319.269
319.737
320.205
320.673
321.141
321.609
322.078
322.546
323.015
323.484
323.953
324.422
324.892
325.362
325.833
326.304
326.776
327.249
327.722
328.196
328.67
329.145
329.622
330.099
330.576
331.055
331.535
332.016
332.498
332.981
333.465
333.951
334.437
334.925
335.414
335.904
336.395
336.887
337.381
337.875
338.371
338.868
339.365
339.864
340.364
340.864
341.365
341.867
342.369
342.871
343.374
343.877
344.381
344.884
345.387
345.889
346.392
346.893
347.394
347.894
348.393
348.89
349.386
349.881
350.374
350.865
351.354
351.841
352.326
352.809
353.289
353.766
354.241
354.712
355.181
355.647
356.11
356.569
357.026
357.479
357.929
358.375
358.818
359.258
359.694
360.127
360.557
360.983
361.405
361.825
362.241
362.653
363.063
363.469
363.872
364.271
364.668
365.062
365.452
365.84
366.225
366.607
366.987
367.363
367.737
368.109
368.478
368.845
369.209
369.572
369.932
370.29
370.646
371
371.352
371.702
372.051
372.398
372.743
373.087
373.429
373.77
374.109
374.448
374.785
375.121
375.456
375.789
376.122
376.454
376.785
377.116
377.445
377.774
378.102
378.43
378.757
379.084
379.41
379.735
380.06
380.385
380.71
381.034
381.358
381.681
382.005
382.328
382.65
382.973
383.295
383.617
383.938
384.259
384.58
384.901
385.22
385.54
385.858
386.176
386.493
386.809
387.124
387.437
387.749
388.059
388.368
388.674
388.977
389.278
389.576
389.87
390.16
390.445
390.743
391.04
391.311
391.557
391.78
391.983
392.165
392.33
392.478
392.611
392.731
392.837
392.933
393.017
393.092
393.159
393.217
393.268
393.313
393.353
393.387
393.416
393.441
393.462
393.48
393.495
393.508
393.518
393.526
393.532
393.537
393.541
393.543
393.545
393.545
237.834
237.878
237.973
238.128
238.349
238.641
239.007
239.449
239.966
240.557
241.218
241.942
242.723
243.552
244.42
245.317
246.235
247.164
248.096
249.025
249.945
250.853
251.748
252.633
253.51
254.386
255.265
256.153
257.057
257.98
258.926
259.896
260.892
261.915
262.966
263.949
264.841
265.699
266.525
267.32
268.086
268.823
269.533
270.218
270.878
271.515
272.131
272.728
273.306
273.868
274.414
274.947
275.469
275.981
276.485
276.982
277.476
277.966
278.455
278.943
279.431
279.92
280.41
280.902
281.395
281.89
282.386
282.885
283.384
283.885
284.387
284.89
285.394
285.899
286.405
286.911
287.417
287.923
288.43
288.936
289.443
289.949
290.454
290.96
291.465
291.969
292.472
292.975
293.478
293.979
294.48
294.98
295.479
295.977
296.474
296.97
297.466
297.96
298.454
298.946
299.438
299.929
300.418
300.907
301.396
301.883
302.369
302.855
303.34
303.823
304.307
304.789
305.27
305.751
306.231
306.711
307.189
307.667
308.144
308.621
309.097
309.572
310.047
310.521
310.995
311.468
311.94
312.413
312.884
313.355
313.826
314.296
314.766
315.236
315.705
316.174
316.643
317.112
317.58
318.049
318.517
318.985
319.453
319.921
320.389
320.857
321.325
321.793
322.261
322.73
323.199
323.668
324.137
324.607
325.078
325.548
326.02
326.491
326.964
327.437
327.911
328.385
328.861
329.337
329.814
330.292
330.77
331.25
331.731
332.213
332.696
333.18
333.666
334.152
334.64
335.129
335.619
336.11
336.602
337.096
337.59
338.086
338.583
339.081
339.579
340.079
340.579
341.08
341.582
342.084
342.587
343.089
343.593
344.096
344.599
345.102
345.605
346.107
346.608
347.109
347.609
348.108
348.605
349.102
349.596
350.089
350.581
351.07
351.557
352.042
352.524
353.004
353.481
353.956
354.428
354.897
355.362
355.825
356.285
356.741
357.194
357.644
358.09
358.533
358.973
359.409
359.842
360.272
360.698
361.12
361.54
361.956
362.368
362.777
363.184
363.586
363.986
364.383
364.776
365.167
365.555
365.94
366.322
366.701
367.078
367.452
367.823
368.192
368.559
368.924
369.286
369.646
370.004
370.36
370.714
371.066
371.416
371.765
372.111
372.457
372.801
373.143
373.484
373.823
374.161
374.498
374.834
375.169
375.503
375.836
376.168
376.499
376.829
377.159
377.488
377.816
378.143
378.47
378.797
379.123
379.449
379.774
380.099
380.423
380.747
381.071
381.395
381.718
382.041
382.364
382.686
383.008
383.33
383.652
383.973
384.294
384.614
384.934
385.253
385.572
385.889
386.206
386.522
386.837
387.151
387.463
387.773
388.081
388.388
388.691
388.992
389.29
389.584
389.874
390.159
390.457
390.755
391.026
391.272
391.495
391.698
391.88
392.045
392.194
392.327
392.446
392.553
392.648
392.733
392.808
392.875
392.933
392.985
393.03
393.069
393.103
393.132
393.157
393.179
393.197
393.212
393.224
393.234
393.242
393.249
393.254
393.257
393.26
393.261
393.262
237.656
237.699
237.793
237.945
238.163
238.451
238.812
239.249
239.762
240.347
241.002
241.721
242.498
243.322
244.187
245.081
245.996
246.923
247.854
248.781
249.7
250.607
251.502
252.386
253.262
254.137
255.015
255.902
256.804
257.726
258.669
259.637
260.631
261.652
262.701
263.682
264.572
265.428
266.252
267.046
267.81
268.545
269.254
269.937
270.596
271.232
271.847
272.442
273.019
273.58
274.125
274.657
275.178
275.689
276.192
276.689
277.181
277.671
278.159
278.646
279.134
279.622
280.112
280.603
281.095
281.589
282.085
282.583
283.082
283.582
284.084
284.587
285.091
285.595
286.1
286.606
287.112
287.618
288.124
288.63
289.136
289.642
290.147
290.652
291.157
291.661
292.164
292.667
293.169
293.67
294.17
294.67
295.169
295.667
296.164
296.66
297.155
297.649
298.143
298.635
299.127
299.617
300.107
300.596
301.084
301.571
302.057
302.543
303.027
303.511
303.994
304.476
304.958
305.438
305.918
306.398
306.876
307.354
307.831
308.308
308.784
309.259
309.734
310.208
310.681
311.154
311.627
312.099
312.57
313.042
313.512
313.983
314.453
314.922
315.392
315.861
316.329
316.798
317.266
317.734
318.203
318.671
319.139
319.606
320.074
320.542
321.01
321.479
321.947
322.416
322.885
323.354
323.823
324.293
324.763
325.234
325.705
326.177
326.65
327.123
327.596
328.071
328.546
329.022
329.499
329.977
330.456
330.936
331.417
331.899
332.382
332.866
333.351
333.838
334.325
334.814
335.304
335.795
336.288
336.781
337.276
337.772
338.268
338.766
339.265
339.764
340.265
340.766
341.267
341.769
342.272
342.775
343.278
343.781
344.285
344.788
345.29
345.792
346.294
346.795
347.295
347.794
348.291
348.787
349.282
349.775
350.266
350.755
351.243
351.727
352.21
352.69
353.167
353.642
354.113
354.582
355.048
355.511
355.97
356.427
356.88
357.33
357.776
358.219
358.659
359.095
359.528
359.957
360.383
360.806
361.225
361.641
362.053
362.463
362.869
363.271
363.671
364.068
364.461
364.852
365.24
365.624
366.006
366.386
366.762
367.136
367.508
367.877
368.244
368.608
368.97
369.33
369.688
370.044
370.398
370.75
371.1
371.449
371.796
372.141
372.484
372.827
373.168
373.507
373.845
374.182
374.518
374.853
375.187
375.52
375.852
376.183
376.513
376.842
377.171
377.499
377.827
378.154
378.48
378.806
379.132
379.457
379.782
380.107
380.431
380.755
381.078
381.401
381.724
382.047
382.37
382.692
383.014
383.335
383.656
383.977
384.298
384.617
384.937
385.255
385.573
385.89
386.206
386.521
386.834
387.147
387.457
387.765
388.072
388.375
388.676
388.974
389.268
389.558
389.844
390.142
390.439
390.71
390.957
391.18
391.383
391.566
391.731
391.879
392.013
392.132
392.239
392.334
392.419
392.494
392.561
392.62
392.671
392.716
392.756
392.79
392.819
392.844
392.865
392.883
392.899
392.911
392.921
392.929
392.936
392.941
392.944
392.946
392.948
392.949
237.474
237.516
237.609
237.759
237.973
238.256
238.612
239.044
239.55
240.129
240.778
241.492
242.263
243.083
243.943
244.834
245.746
246.67
247.599
248.525
249.442
250.348
251.242
252.125
253.001
253.874
254.751
255.637
256.537
257.457
258.398
259.364
260.356
261.374
262.42
263.399
264.286
265.141
265.963
266.755
267.517
268.251
268.958
269.64
270.297
270.932
271.545
272.139
272.715
273.274
273.819
274.35
274.869
275.379
275.881
276.377
276.869
277.357
277.845
278.331
278.818
279.305
279.794
280.284
280.776
281.27
281.765
282.262
282.761
283.261
283.762
284.264
284.768
285.272
285.776
286.281
286.787
287.293
287.798
288.304
288.81
289.315
289.82
290.325
290.829
291.333
291.836
292.338
292.84
293.341
293.841
294.341
294.839
295.337
295.834
296.329
296.824
297.319
297.812
298.304
298.795
299.286
299.775
300.264
300.752
301.239
301.725
302.21
302.695
303.179
303.661
304.144
304.625
305.105
305.585
306.065
306.543
307.021
307.498
307.974
308.45
308.925
309.4
309.874
310.347
310.82
311.293
311.765
312.236
312.707
313.178
313.648
314.118
314.588
315.057
315.526
315.995
316.463
316.932
317.4
317.868
318.336
318.804
319.272
319.74
320.208
320.676
321.144
321.612
322.081
322.55
323.019
323.488
323.958
324.429
324.899
325.37
325.842
326.315
326.788
327.261
327.736
328.211
328.687
329.164
329.642
330.121
330.601
331.082
331.564
332.047
332.531
333.016
333.503
333.99
334.479
334.969
335.46
335.953
336.446
336.941
337.437
337.933
338.431
338.93
339.429
339.93
340.431
340.932
341.434
341.937
342.44
342.943
343.446
343.95
344.453
344.955
345.458
345.959
346.46
346.96
347.459
347.956
348.453
348.947
349.44
349.931
350.421
350.908
351.393
351.875
352.355
352.832
353.307
353.779
354.247
354.713
355.176
355.635
356.092
356.545
356.995
357.441
357.884
358.324
358.76
359.192
359.622
360.048
360.47
360.89
361.305
361.718
362.127
362.533
362.936
363.336
363.732
364.126
364.516
364.904
365.288
365.67
366.05
366.426
366.8
367.172
367.541
367.907
368.272
368.634
368.994
369.352
369.707
370.061
370.413
370.764
371.112
371.459
371.804
372.148
372.49
372.831
373.17
373.508
373.845
374.181
374.516
374.85
375.183
375.514
375.845
376.176
376.505
376.834
377.162
377.49
377.817
378.143
378.469
378.795
379.12
379.445
379.769
380.093
380.417
380.741
381.064
381.387
381.71
382.032
382.354
382.676
382.998
383.319
383.64
383.96
384.28
384.599
384.918
385.236
385.553
385.869
386.184
386.497
386.81
387.12
387.428
387.735
388.039
388.34
388.638
388.932
389.222
389.508
389.806
390.103
390.375
390.621
390.845
391.047
391.23
391.396
391.544
391.678
391.797
391.904
392
392.085
392.16
392.227
392.285
392.337
392.382
392.421
392.456
392.485
392.51
392.532
392.55
392.565
392.577
392.587
392.595
392.602
392.607
392.61
392.613
392.614
392.615
226.3
226.369
226.52
226.76
227.094
227.526
228.055
228.678
229.39
230.184
231.052
231.983
232.967
233.99
235.042
236.109
237.181
238.248
239.302
240.336
241.344
242.326
243.283
244.217
245.135
246.045
246.954
247.871
248.801
249.75
250.72
251.713
252.732
253.777
254.848
255.851
256.759
257.632
258.472
259.28
260.057
260.804
261.524
262.217
262.885
263.53
264.152
264.754
265.338
265.904
266.455
266.992
267.517
268.032
268.54
269.041
269.538
270.031
270.524
271.016
271.508
272.001
272.496
272.992
273.49
273.99
274.491
274.994
275.498
276.004
276.511
277.019
277.527
278.037
278.547
279.057
279.567
280.078
280.588
281.098
281.608
282.118
282.627
283.135
283.643
284.15
284.657
285.163
285.668
286.172
286.675
287.177
287.678
288.179
288.678
289.176
289.674
290.17
290.665
291.159
291.653
292.145
292.636
293.127
293.616
294.105
294.592
295.079
295.565
296.05
296.534
297.017
297.5
297.981
298.462
298.942
299.422
299.9
300.378
300.855
301.332
301.808
302.283
302.758
303.232
303.705
304.178
304.651
305.123
305.594
306.065
306.536
307.006
307.476
307.945
308.415
308.884
309.352
309.821
310.289
310.757
311.225
311.693
312.161
312.629
313.097
313.566
314.034
314.502
314.971
315.44
315.909
316.378
316.848
317.318
317.789
318.26
318.732
319.204
319.677
320.151
320.626
321.101
321.577
322.054
322.532
323.011
323.49
323.971
324.453
324.936
325.42
325.906
326.392
326.88
327.369
327.859
328.35
328.843
329.336
329.831
330.327
330.824
331.322
331.821
332.321
332.821
333.322
333.824
334.327
334.83
335.333
335.837
336.34
336.844
337.347
337.851
338.353
338.855
339.357
339.857
340.356
340.854
341.351
341.846
342.34
342.832
343.321
343.809
344.294
344.777
345.258
345.736
346.211
346.683
347.152
347.619
348.082
348.542
348.999
349.452
349.902
350.349
350.793
351.233
351.669
352.103
352.532
352.959
353.382
353.801
354.218
354.63
355.04
355.446
355.85
356.25
356.646
357.04
357.431
357.819
358.204
358.586
358.966
359.343
359.717
360.089
360.458
360.825
361.189
361.552
361.912
362.27
362.626
362.98
363.332
363.683
364.031
364.378
364.724
365.068
365.41
365.751
366.091
366.429
366.766
367.102
367.437
367.771
368.104
368.436
368.767
369.097
369.427
369.755
370.084
370.411
370.738
371.065
371.391
371.716
372.042
372.366
372.691
373.015
373.339
373.662
373.986
374.309
374.632
374.954
375.276
375.598
375.92
376.241
376.562
376.883
377.203
377.522
377.841
378.16
378.477
378.793
379.109
379.423
379.736
380.047
380.356
380.664
380.969
381.271
381.57
381.866
382.158
382.446
382.746
383.046
383.32
383.57
383.797
384.002
384.188
384.357
384.508
384.645
384.768
384.878
384.976
385.064
385.142
385.211
385.273
385.327
385.374
385.416
385.452
385.483
385.51
385.533
385.553
385.569
385.583
385.594
385.603
385.61
385.616
385.62
385.622
385.624
385.625
226.285
226.354
226.504
226.742
227.076
227.506
228.033
228.654
229.364
230.156
231.021
231.951
232.933
233.955
235.004
236.07
237.141
238.207
239.26
240.293
241.301
242.282
243.238
244.172
245.09
245.999
246.908
247.824
248.754
249.702
250.671
251.664
252.682
253.726
254.797
255.798
256.706
257.578
258.418
259.225
260.001
260.749
261.468
262.16
262.828
263.472
264.094
264.696
265.279
265.844
266.395
266.932
267.457
267.972
268.479
268.979
269.476
269.969
270.462
270.953
271.445
271.938
272.433
272.929
273.426
273.926
274.427
274.929
275.434
275.939
276.446
276.954
277.462
277.971
278.481
278.991
279.501
280.012
280.522
281.032
281.542
282.051
282.56
283.069
283.577
284.084
284.59
285.096
285.601
286.105
286.608
287.11
287.611
288.111
288.61
289.109
289.606
290.102
290.597
291.092
291.585
292.077
292.568
293.059
293.548
294.037
294.524
295.011
295.497
295.982
296.466
296.949
297.431
297.913
298.394
298.874
299.353
299.832
300.31
300.787
301.263
301.739
302.215
302.689
303.163
303.637
304.11
304.582
305.054
305.525
305.996
306.467
306.937
307.407
307.877
308.346
308.815
309.284
309.752
310.22
310.689
311.157
311.625
312.093
312.561
313.029
313.497
313.965
314.434
314.902
315.371
315.84
316.31
316.779
317.25
317.72
318.192
318.663
319.136
319.609
320.082
320.557
321.032
321.508
321.985
322.463
322.942
323.422
323.903
324.385
324.868
325.352
325.837
326.324
326.811
327.3
327.79
328.282
328.774
329.268
329.762
330.258
330.755
331.253
331.752
332.252
332.752
333.254
333.756
334.258
334.761
335.265
335.768
336.272
336.775
337.279
337.782
338.285
338.787
339.288
339.788
340.288
340.786
341.283
341.778
342.271
342.763
343.253
343.74
344.226
344.709
345.189
345.667
346.142
346.614
347.084
347.55
348.013
348.473
348.93
349.384
349.834
350.281
350.724
351.164
351.601
352.034
352.464
352.89
353.313
353.733
354.149
354.562
354.971
355.378
355.781
356.181
356.578
356.971
357.362
357.75
358.135
358.517
358.897
359.274
359.648
360.02
360.389
360.756
361.121
361.483
361.843
362.201
362.557
362.911
363.263
363.614
363.962
364.309
364.655
364.999
365.341
365.682
366.022
366.36
366.697
367.033
367.368
367.702
368.034
368.366
368.698
369.028
369.357
369.686
370.014
370.342
370.669
370.996
371.322
371.647
371.972
372.297
372.622
372.946
373.27
373.593
373.917
374.24
374.562
374.885
375.207
375.529
375.851
376.172
376.493
376.814
377.134
377.453
377.772
378.091
378.408
378.724
379.04
379.354
379.667
379.978
380.287
380.595
380.9
381.202
381.501
381.797
382.089
382.377
382.677
382.977
383.252
383.501
383.728
383.934
384.12
384.288
384.44
384.576
384.699
384.809
384.908
384.995
385.074
385.143
385.204
385.258
385.306
385.347
385.383
385.415
385.442
385.465
385.484
385.501
385.514
385.526
385.535
385.542
385.547
385.551
385.554
385.556
385.556
226.256
226.324
226.473
226.71
227.041
227.468
227.991
228.608
229.314
230.102
230.963
231.888
232.866
233.885
234.931
235.994
237.062
238.126
239.177
240.209
241.215
242.195
243.151
244.084
245.001
245.909
246.817
247.733
248.661
249.607
250.575
251.567
252.583
253.626
254.695
255.696
256.602
257.473
258.311
259.117
259.893
260.639
261.357
262.048
262.715
263.358
263.979
264.58
265.163
265.728
266.277
266.813
267.338
267.852
268.358
268.859
269.354
269.847
270.339
270.83
271.322
271.814
272.308
272.804
273.301
273.8
274.301
274.803
275.307
275.812
276.318
276.826
277.334
277.843
278.352
278.862
279.372
279.882
280.392
280.902
281.411
281.921
282.429
282.938
283.445
283.952
284.459
284.964
285.469
285.973
286.475
286.977
287.478
287.979
288.478
288.976
289.473
289.969
290.464
290.958
291.451
291.944
292.435
292.925
293.414
293.903
294.39
294.877
295.363
295.847
296.331
296.815
297.297
297.779
298.259
298.739
299.219
299.697
300.175
300.652
301.129
301.604
302.08
302.554
303.028
303.502
303.975
304.447
304.919
305.39
305.861
306.332
306.802
307.272
307.742
308.211
308.68
309.148
309.617
310.085
310.553
311.021
311.49
311.957
312.425
312.894
313.362
313.83
314.298
314.767
315.236
315.705
316.174
316.644
317.114
317.585
318.056
318.528
319.001
319.474
319.947
320.422
320.897
321.373
321.85
322.328
322.807
323.287
323.767
324.249
324.732
325.217
325.702
326.188
326.676
327.165
327.655
328.146
328.639
329.133
329.627
330.123
330.62
331.118
331.617
332.117
332.617
333.119
333.621
334.123
334.626
335.13